 vasp.5.3.5 31Mar14 (build Jun 01 2017 17:55:53) complex                        
  
 executed on             LinuxIFC date 2020.11.10  15:19:52
 running on    4 total cores
 distrk:  each k-point on    4 cores,    1 groups
 distr:  one band on NCORES_PER_BAND=   1 cores,    4 groups


--------------------------------------------------------------------------------------------------------


 INCAR:
 POTCAR:   PAW_PBE Si 05Jan2001                   
 POTCAR:   PAW_PBE Si 05Jan2001                   
   VRHFIN =Si: s2p2                                                             
   LEXCH  = PE                                                                  
   EATOM  =   103.0669 eV,    7.5752 Ry                                         
                                                                                
   TITEL  = PAW_PBE Si 05Jan2001                                                
   LULTRA =        F    use ultrasoft PP ?                                      
   IUNSCR =        1    unscreen: 0-lin 1-nonlin 2-no                           
   RPACOR =    1.500    partial core radius                                     
   POMASS =   28.085; ZVAL   =    4.000    mass and valenz                      
   RCORE  =    1.900    outmost cutoff radius                                   
   RWIGS  =    2.480; RWIGS  =    1.312    wigner-seitz radius (au A)           
   ENMAX  =  245.345; ENMIN  =  184.009 eV                                      
   ICORE  =        2    local potential                                         
   LCOR   =        T    correct aug charges                                     
   LPAW   =        T    paw PP                                                  
   EAUG   =  322.069                                                            
   DEXC   =    -.007                                                            
   RMAX   =    2.944    core radius for proj-oper                               
   RAUG   =    1.300    factor for augmentation sphere                          
   RDEP   =    1.993    radius for radial grids                                 
   QCUT   =   -4.246; QGAM   =    8.493    optimization parameters              
                                                                                
   Description                                                                  
     l     E      TYP  RCUT    TYP  RCUT                                        
     0   .000     23  1.900                                                     
     0   .000     23  1.900                                                     
     1   .000     23  1.900                                                     
     1   .000     23  1.900                                                     
     2   .000      7  1.900                                                     
  local pseudopotential read in
  partial core-charges read in
  atomic valenz-charges read in
  non local Contribution for L=           0  read in
    real space projection operators read in
  non local Contribution for L=           0  read in
    real space projection operators read in
  non local Contribution for L=           1  read in
    real space projection operators read in
  non local Contribution for L=           1  read in
    real space projection operators read in
    PAW grid and wavefunctions read in
 
   number of l-projection  operators is LMAX  =           4
   number of lm-projection operators is LMMAX =           8
 
 PAW_PBE Si 05Jan2001                   :
 energy of atom  1       EATOM= -103.0669
 kinetic energy error for atom=    0.0003 (will be added to EATOM!!)
 
 
 POSCAR: Si
  positions in direct lattice
  velocities in cartesian coordinates
  No initial velocities read in
 exchange correlation table for  LEXCH =        8
   RHO(1)=    0.500       N(1)  =     2000
   RHO(2)=  100.500       N(2)  =     4000
 


--------------------------------------------------------------------------------------------------------


 ion  position               nearest neighbor table
   1  0.000  0.000  0.000-   2 3.00   2 3.00   2 3.00   2 3.00
   2  0.250  0.250  0.250-   1 3.00   1 3.00   1 3.00   1 3.00
 
  LATTYP: Found a face centered cubic cell.
 ALAT       =     6.9282032303
  
  Lattice vectors:
  
 A1 = (   0.0000000000,   3.4641016151,   3.4641016151)
 A2 = (   3.4641016151,   0.0000000000,   3.4641016151)
 A3 = (   3.4641016151,   3.4641016151,   0.0000000000)


Analysis of symmetry for initial positions (statically):
=====================================================================
 Subroutine PRICEL returns:
 Original cell was already a primitive cell.
 

 Routine SETGRP: Setting up the symmetry group for a 
 face centered cubic supercell.


 Subroutine GETGRP returns: Found 48 space group operations
 (whereof 24 operations were pure point group operations)
 out of a pool of 48 trial point group operations.


The static configuration has the point symmetry T_d .
 The point group associated with its full space group is O_h .


Analysis of symmetry for dynamics (positions and initial velocities):
=====================================================================
 Subroutine PRICEL returns:
 Original cell was already a primitive cell.
 

 Routine SETGRP: Setting up the symmetry group for a 
 face centered cubic supercell.


 Subroutine GETGRP returns: Found 48 space group operations
 (whereof 24 operations were pure point group operations)
 out of a pool of 48 trial point group operations.


The dynamic configuration has the point symmetry T_d .
 The point group associated with its full space group is O_h .


Analysis of constrained symmetry for selective dynamics:
=====================================================================
 Subroutine PRICEL returns:
 Original cell was already a primitive cell.
 

 Routine SETGRP: Setting up the symmetry group for a 
 face centered cubic supercell.


 Subroutine GETGRP returns: Found 48 space group operations
 (whereof 24 operations were pure point group operations)
 out of a pool of 48 trial point group operations.


The constrained configuration has the point symmetry T_d .
 The point group associated with its full space group is O_h .
 
 
 KPOINTS: Gamma centered Monkhorst-Pack           

Automatic generation of k-mesh.
Space group operators:
 irot       det(A)        alpha          n_x          n_y          n_z        tau_x        tau_y        tau_z
    1     1.000000     0.000000     1.000000     0.000000     0.000000     0.000000     0.000000     0.000000
    2     1.000000   120.000000    -0.577350    -0.577350    -0.577350     0.000000     0.000000     0.000000
    3     1.000000   120.000000     0.577350     0.577350     0.577350     0.000000     0.000000     0.000000
    4    -1.000000    90.000000     0.000000     0.000000    -1.000000     0.000000     0.000000     0.000000
    5    -1.000000   180.000000     0.000000     0.707107     0.707107     0.000000     0.000000     0.000000
    6    -1.000000    90.000000     0.000000     1.000000     0.000000     0.000000     0.000000     0.000000
    7     1.000000   180.000000     0.000000     0.000000     1.000000     0.000000     0.000000     0.000000
    8     1.000000   120.000000    -0.577350     0.577350     0.577350     0.000000     0.000000     0.000000
    9     1.000000   120.000000    -0.577350     0.577350    -0.577350     0.000000     0.000000     0.000000
   10    -1.000000    90.000000     0.000000     0.000000     1.000000     0.000000     0.000000     0.000000
   11    -1.000000    90.000000    -1.000000     0.000000     0.000000     0.000000     0.000000     0.000000
   12    -1.000000   180.000000     0.707107     0.000000     0.707107     0.000000     0.000000     0.000000
   13     1.000000   120.000000     0.577350    -0.577350     0.577350     0.000000     0.000000     0.000000
   14     1.000000   120.000000    -0.577350    -0.577350     0.577350     0.000000     0.000000     0.000000
   15     1.000000   180.000000     1.000000     0.000000     0.000000     0.000000     0.000000     0.000000
   16    -1.000000    90.000000     0.000000    -1.000000     0.000000     0.000000     0.000000     0.000000
   17    -1.000000   180.000000     0.707107     0.707107     0.000000     0.000000     0.000000     0.000000
   18    -1.000000    90.000000     1.000000     0.000000     0.000000     0.000000     0.000000     0.000000
   19     1.000000   120.000000     0.577350    -0.577350    -0.577350     0.000000     0.000000     0.000000
   20     1.000000   180.000000     0.000000     1.000000     0.000000     0.000000     0.000000     0.000000
   21     1.000000   120.000000     0.577350     0.577350    -0.577350     0.000000     0.000000     0.000000
   22    -1.000000   180.000000     0.000000    -0.707107     0.707107     0.000000     0.000000     0.000000
   23    -1.000000   180.000000     0.707107    -0.707107     0.000000     0.000000     0.000000     0.000000
   24    -1.000000   180.000000     0.707107     0.000000    -0.707107     0.000000     0.000000     0.000000
   25    -1.000000     0.000000     1.000000     0.000000     0.000000     0.250000     0.250000     0.250000
   26    -1.000000   120.000000    -0.577350    -0.577350    -0.577350     0.250000     0.250000     0.250000
   27    -1.000000   120.000000     0.577350     0.577350     0.577350     0.250000     0.250000     0.250000
   28     1.000000    90.000000     0.000000     0.000000    -1.000000     0.250000     0.250000     0.250000
   29     1.000000   180.000000     0.000000     0.707107     0.707107     0.250000     0.250000     0.250000
   30     1.000000    90.000000     0.000000     1.000000     0.000000     0.250000     0.250000     0.250000
   31    -1.000000   180.000000     0.000000     0.000000     1.000000     0.250000     0.250000     0.250000
   32    -1.000000   120.000000    -0.577350     0.577350     0.577350     0.250000     0.250000     0.250000
   33    -1.000000   120.000000    -0.577350     0.577350    -0.577350     0.250000     0.250000     0.250000
   34     1.000000    90.000000     0.000000     0.000000     1.000000     0.250000     0.250000     0.250000
   35     1.000000    90.000000    -1.000000     0.000000     0.000000     0.250000     0.250000     0.250000
   36     1.000000   180.000000     0.707107     0.000000     0.707107     0.250000     0.250000     0.250000
   37    -1.000000   120.000000     0.577350    -0.577350     0.577350     0.250000     0.250000     0.250000
   38    -1.000000   120.000000    -0.577350    -0.577350     0.577350     0.250000     0.250000     0.250000
   39    -1.000000   180.000000     1.000000     0.000000     0.000000     0.250000     0.250000     0.250000
   40     1.000000    90.000000     0.000000    -1.000000     0.000000     0.250000     0.250000     0.250000
   41     1.000000   180.000000     0.707107     0.707107     0.000000     0.250000     0.250000     0.250000
   42     1.000000    90.000000     1.000000     0.000000     0.000000     0.250000     0.250000     0.250000
   43    -1.000000   120.000000     0.577350    -0.577350    -0.577350     0.250000     0.250000     0.250000
   44    -1.000000   180.000000     0.000000     1.000000     0.000000     0.250000     0.250000     0.250000
   45    -1.000000   120.000000     0.577350     0.577350    -0.577350     0.250000     0.250000     0.250000
   46     1.000000   180.000000     0.000000    -0.707107     0.707107     0.250000     0.250000     0.250000
   47     1.000000   180.000000     0.707107    -0.707107     0.000000     0.250000     0.250000     0.250000
   48     1.000000   180.000000     0.707107     0.000000    -0.707107     0.250000     0.250000     0.250000
 
 Subroutine IBZKPT returns following result:
 ===========================================
 
 Found     72 irreducible k-points:
 
 Following reciprocal coordinates:
            Coordinates               Weight
  0.000000  0.000000  0.000000      1.000000
  0.083333  0.000000  0.000000      8.000000
  0.166667  0.000000  0.000000      8.000000
  0.250000  0.000000  0.000000      8.000000
  0.333333  0.000000  0.000000      8.000000
  0.416667  0.000000  0.000000      8.000000
  0.500000  0.000000  0.000000      4.000000
  0.083333  0.083333  0.000000      6.000000
  0.166667  0.083333  0.000000     24.000000
  0.250000  0.083333  0.000000     24.000000
  0.333333  0.083333  0.000000     24.000000
  0.416667  0.083333  0.000000     24.000000
  0.500000  0.083333  0.000000     24.000000
 -0.416667  0.083333  0.000000     24.000000
 -0.333333  0.083333  0.000000     24.000000
 -0.250000  0.083333  0.000000     24.000000
 -0.166667  0.083333  0.000000     24.000000
 -0.083333  0.083333  0.000000     12.000000
  0.166667  0.166667  0.000000      6.000000
  0.250000  0.166667  0.000000     24.000000
  0.333333  0.166667  0.000000     24.000000
  0.416667  0.166667  0.000000     24.000000
  0.500000  0.166667  0.000000     24.000000
 -0.416667  0.166667  0.000000     24.000000
 -0.333333  0.166667  0.000000     24.000000
 -0.250000  0.166667  0.000000     24.000000
 -0.166667  0.166667  0.000000     12.000000
  0.250000  0.250000  0.000000      6.000000
  0.333333  0.250000  0.000000     24.000000
  0.416667  0.250000  0.000000     24.000000
  0.500000  0.250000  0.000000     24.000000
 -0.416667  0.250000  0.000000     24.000000
 -0.333333  0.250000  0.000000     24.000000
 -0.250000  0.250000  0.000000     12.000000
  0.333333  0.333333  0.000000      6.000000
  0.416667  0.333333  0.000000     24.000000
  0.500000  0.333333  0.000000     24.000000
 -0.416667  0.333333  0.000000     24.000000
 -0.333333  0.333333  0.000000     12.000000
  0.416667  0.416667  0.000000      6.000000
  0.500000  0.416667  0.000000     24.000000
 -0.416667  0.416667  0.000000     12.000000
  0.500000  0.500000  0.000000      3.000000
  0.250000  0.166667  0.083333     24.000000
  0.333333  0.166667  0.083333     48.000000
  0.416667  0.166667  0.083333     48.000000
  0.500000  0.166667  0.083333     48.000000
 -0.416667  0.166667  0.083333     24.000000
  0.333333  0.250000  0.083333     24.000000
  0.416667  0.250000  0.083333     48.000000
  0.500000  0.250000  0.083333     48.000000
 -0.416667  0.250000  0.083333     48.000000
 -0.333333  0.250000  0.083333     48.000000
 -0.250000  0.250000  0.083333     48.000000
 -0.166667  0.250000  0.083333     24.000000
  0.416667  0.333333  0.083333     24.000000
  0.500000  0.333333  0.083333     48.000000
 -0.416667  0.333333  0.083333     48.000000
 -0.333333  0.333333  0.083333     48.000000
 -0.250000  0.333333  0.083333     24.000000
  0.500000  0.416667  0.083333     24.000000
 -0.416667  0.416667  0.083333     48.000000
 -0.333333  0.416667  0.083333     24.000000
 -0.416667  0.500000  0.083333     12.000000
  0.500000  0.333333  0.166667     24.000000
 -0.416667  0.333333  0.166667     48.000000
 -0.333333  0.333333  0.166667     24.000000
 -0.416667  0.416667  0.166667     24.000000
 -0.333333  0.416667  0.166667     48.000000
 -0.250000  0.416667  0.166667     24.000000
 -0.333333  0.500000  0.166667     12.000000
 -0.250000  0.500000  0.250000      6.000000
 
 Following cartesian coordinates:
            Coordinates               Weight
  0.000000  0.000000  0.000000      1.000000
 -0.083333  0.083333  0.083333      8.000000
 -0.166667  0.166667  0.166667      8.000000
 -0.250000  0.250000  0.250000      8.000000
 -0.333333  0.333333  0.333333      8.000000
 -0.416667  0.416667  0.416667      8.000000
 -0.500000  0.500000  0.500000      4.000000
  0.000000  0.000000  0.166667      6.000000
 -0.083333  0.083333  0.250000     24.000000
 -0.166667  0.166667  0.333333     24.000000
 -0.250000  0.250000  0.416667     24.000000
 -0.333333  0.333333  0.500000     24.000000
 -0.416667  0.416667  0.583333     24.000000
  0.500000 -0.500000 -0.333333     24.000000
  0.416667 -0.416667 -0.250000     24.000000
  0.333333 -0.333333 -0.166667     24.000000
  0.250000 -0.250000 -0.083333     24.000000
  0.166667 -0.166667  0.000000     12.000000
  0.000000  0.000000  0.333333      6.000000
 -0.083333  0.083333  0.416667     24.000000
 -0.166667  0.166667  0.500000     24.000000
 -0.250000  0.250000  0.583333     24.000000
 -0.333333  0.333333  0.666667     24.000000
  0.583333 -0.583333 -0.250000     24.000000
  0.500000 -0.500000 -0.166667     24.000000
  0.416667 -0.416667 -0.083333     24.000000
  0.333333 -0.333333  0.000000     12.000000
  0.000000  0.000000  0.500000      6.000000
 -0.083333  0.083333  0.583333     24.000000
 -0.166667  0.166667  0.666667     24.000000
 -0.250000  0.250000  0.750000     24.000000
  0.666667 -0.666667 -0.166667     24.000000
  0.583333 -0.583333 -0.083333     24.000000
  0.500000 -0.500000  0.000000     12.000000
  0.000000  0.000000  0.666667      6.000000
 -0.083333  0.083333  0.750000     24.000000
 -0.166667  0.166667  0.833333     24.000000
  0.750000 -0.750000 -0.083333     24.000000
  0.666667 -0.666667  0.000000     12.000000
  0.000000  0.000000  0.833333      6.000000
 -0.083333  0.083333  0.916667     24.000000
  0.833333 -0.833333  0.000000     12.000000
  0.000000  0.000000  1.000000      3.000000
  0.000000  0.166667  0.333333     24.000000
 -0.083333  0.250000  0.416667     48.000000
 -0.166667  0.333333  0.500000     48.000000
 -0.250000  0.416667  0.583333     48.000000
  0.666667 -0.500000 -0.333333     24.000000
  0.000000  0.166667  0.500000     24.000000
 -0.083333  0.250000  0.583333     48.000000
 -0.166667  0.333333  0.666667     48.000000
  0.750000 -0.583333 -0.250000     48.000000
  0.666667 -0.500000 -0.166667     48.000000
  0.583333 -0.416667 -0.083333     48.000000
  0.500000 -0.333333  0.000000     24.000000
 -0.000000  0.166667  0.666667     24.000000
 -0.083333  0.250000  0.750000     48.000000
  0.833333 -0.666667 -0.166667     48.000000
  0.750000 -0.583333 -0.083333     48.000000
  0.666667 -0.500000  0.000000     24.000000
  0.000000  0.166667  0.833333     24.000000
  0.916667 -0.750000 -0.083333     48.000000
  0.833333 -0.666667  0.000000     24.000000
  1.000000 -0.833333  0.000000     12.000000
  0.000000  0.333333  0.666667     24.000000
  0.916667 -0.583333 -0.250000     48.000000
  0.833333 -0.500000 -0.166667     24.000000
  1.000000 -0.666667 -0.166667     24.000000
  0.916667 -0.583333 -0.083333     48.000000
  0.833333 -0.500000  0.000000     24.000000
  1.000000 -0.666667  0.000000     12.000000
  1.000000 -0.500000  0.000000      6.000000
 


--------------------------------------------------------------------------------------------------------




 Dimension of arrays:
   k-points           NKPTS =     72   k-points in BZ     NKDIM =     72   number of bands    NBANDS=      8
   number of dos      NEDOS =    301   number of ions     NIONS =      2
   non local maximal  LDIM  =      4   non local SUM 2l+1 LMDIM =      8
   total plane-waves  NPLWV =  27000
   max r-space proj   IRMAX =      1   max aug-charges    IRDMAX=  11057
   dimension x,y,z NGX =    30 NGY =   30 NGZ =   30
   dimension x,y,z NGXF=    60 NGYF=   60 NGZF=   60
   support grid    NGXF=    60 NGYF=   60 NGZF=   60
   ions per type =               2
 NGX,Y,Z   is equivalent  to a cutoff of  10.18, 10.18, 10.18 a.u.
 NGXF,Y,Z  is equivalent  to a cutoff of  20.36, 20.36, 20.36 a.u.


 I would recommend the setting:
   dimension x,y,z NGX =    29 NGY =   29 NGZ =   29
 SYSTEM =  Si
 POSCAR =  Si

 Startparameter for this run:
   NWRITE =      2    write-flag & timer
   PREC   = normal    normal or accurate (medium, high low for compatibility)
   ISTART =      0    job   : 0-new  1-cont  2-samecut
   ICHARG =      2    charge: 1-file 2-atom 10-const
   ISPIN  =      1    spin polarized calculation?
   LNONCOLLINEAR =      F non collinear calculations
   LSORBIT =      F    spin-orbit coupling
   INIWAV =      1    electr: 0-lowe 1-rand  2-diag
   LASPH  =      F    aspherical Exc in radial PAW
   METAGGA=      F    non-selfconsistent MetaGGA calc.

 Electronic Relaxation 1
   ENCUT  =  600.0 eV  44.10 Ry    6.64 a.u.   9.78  9.78  9.78*2*pi/ulx,y,z
   ENINI  =  600.0     initial cutoff
   ENAUG  = 1200.0 eV  augmentation charge cutoff
   NELM   =    500;   NELMIN=  2; NELMDL= -5     # of ELM steps 
   EDIFF  = 0.1E-09   stopping-criterion for ELM
   LREAL  =      F    real-space projection
   NLSPLINE    = F    spline interpolate recip. space projectors
   LCOMPAT=      F    compatible to vasp.4.4
   GGA_COMPAT  = T    GGA compatible to vasp.4.4-vasp.4.6
   LMAXPAW     = -100 max onsite density
   LMAXMIX     =    2 max onsite mixed and CHGCAR
   VOSKOWN=      0    Vosko Wilk Nusair interpolation
   ROPT   =    0.00000
 Ionic relaxation
   EDIFFG = 0.1E-08   stopping-criterion for IOM
   NSW    =      0    number of steps for IOM
   NBLOCK =      1;   KBLOCK =      1    inner block; outer block 
   IBRION =     -1    ionic relax: 0-MD 1-quasi-New 2-CG
   NFREE  =      0    steps in history (QN), initial steepest desc. (CG)
   ISIF   =      2    stress and relaxation
   IWAVPR =     10    prediction:  0-non 1-charg 2-wave 3-comb
   ISYM   =      2    0-nonsym 1-usesym 2-fastsym
   LCORR  =      T    Harris-Foulkes like correction to forces

   POTIM  = 0.5000    time-step for ionic-motion
   TEIN   =    0.0    initial temperature
   TEBEG  =    0.0;   TEEND  =   0.0 temperature during run
   SMASS  =  -3.00    Nose mass-parameter (am)
   estimated Nose-frequenzy (Omega)   =  0.10E-29 period in steps =****** mass=  -0.548E-27a.u.
   SCALEE = 1.0000    scale energy and forces
   NPACO  =    256;   APACO  = 16.0  distance and # of slots for P.C.
   PSTRESS=    0.0 pullay stress

  Mass of Ions in am
   POMASS =  28.09
  Ionic Valenz
   ZVAL   =   4.00
  Atomic Wigner-Seitz radii
   RWIGS  =  -1.00
  virtual crystal weights 
   VCA    =   1.00
   NELECT =       8.0000    total number of electrons
   NUPDOWN=      -1.0000    fix difference up-down

 DOS related values:
   EMIN   =  10.00;   EMAX   =-10.00  energy-range for DOS
   EFERMI =   0.00
   ISMEAR =    -1;   SIGMA  =   0.03  broadening in eV -4-tet -1-fermi 0-gaus

 Electronic relaxation 2 (details)
   IALGO  =     38    algorithm
   LDIAG  =      T    sub-space diagonalisation (order eigenvalues)
   LSUBROT=      F    optimize rotation matrix (better conditioning)
   TURBO    =      0    0=normal 1=particle mesh
   IRESTART =      0    0=no restart 2=restart with 2 vectors
   NREBOOT  =      0    no. of reboots
   NMIN     =      0    reboot dimension
   EREF     =   0.00    reference energy to select bands
   IMIX   =      4    mixing-type and parameters
     AMIX     =   0.40;   BMIX     =  1.00
     AMIX_MAG =   1.60;   BMIX_MAG =  1.00
     AMIN     =   0.10
     WC   =   100.;   INIMIX=   1;  MIXPRE=   1;  MAXMIX= -45

 Intra band minimization:
   WEIMIN = 0.0000     energy-eigenvalue tresh-hold
   EBREAK =  0.31E-11  absolut break condition
   DEPER  =   0.30     relativ break condition  

   TIME   =   0.40     timestep for ELM

  volume/ion in A,a.u.               =      41.57       280.52
  Fermi-wavevector in a.u.,A,eV,Ry     =   0.750189  1.417652  7.657141  0.562784
  Thomas-Fermi vector in A             =   1.846883
 
 Write flags
   LWAVE  =      T    write WAVECAR
   LCHARG =      T    write CHGCAR
   LVTOT  =      F    write LOCPOT, total local potential
   LVHAR  =      F    write LOCPOT, Hartree potential only
   LELF   =      F    write electronic localiz. function (ELF)
   LORBIT =      0    0 simple, 1 ext, 2 COOP (PROOUT)


 Dipole corrections
   LMONO  =      F    monopole corrections only (constant potential shift)
   LDIPOL =      F    correct potential (dipole corrections)
   IDIPOL =      0    1-x, 2-y, 3-z, 4-all directions 
   EPSILON=  1.0000000 bulk dielectric constant

 Exchange correlation treatment:
   GGA     =    PE    GGA type
   LEXCH   =     8    internal setting for exchange type
   VOSKOWN=      0    Vosko Wilk Nusair interpolation
   LHFCALC =     F    Hartree Fock is set to
   LHFONE  =     F    Hartree Fock one center treatment
   AEXX    =    0.0000 exact exchange contribution

 Linear response parameters
   LEPSILON=     F    determine dielectric tensor
   LRPA    =     F    only Hartree local field effects (RPA)
   LNABLA  =     F    use nabla operator in PAW spheres
   LVEL    =     F    velocity operator in full k-point grid
   LINTERFAST=   F  fast interpolation
   KINTER  =     0    interpolate to denser k-point grid
   CSHIFT  =0.1000    complex shift for real part using Kramers Kronig
   OMEGAMAX=  -1.0    maximum frequency
   DEG_THRESHOLD= 0.2000000E-02 threshold for treating states as degnerate
   RTIME   =    0.100 relaxation time in fs

 Orbital magnetization related:
   ORBITALMAG=     F  switch on orbital magnetization
   LCHIMAG   =     F  perturbation theory with respect to B field
   DQ        =  0.001000  dq finite difference perturbation B field



--------------------------------------------------------------------------------------------------------


 Static calculation
 charge density and potential will be updated during run
 non-spin polarized calculation
 Variant of blocked Davidson
 Davidson routine will perform the subspace rotation
 perform sub-space diagonalisation
    after iterative eigenvector-optimisation
 modified Broyden-mixing scheme, WC =      100.0
 initial mixing is a Kerker type mixing with AMIX =  0.4000 and BMIX =      1.0000
 Hartree-type preconditioning will be used
 using additional bands            4
 reciprocal scheme for non local part
 use partial core corrections
 calculate Harris-corrections to forces 
   (improved forces if not selfconsistent)
 use gradient corrections 
 use of overlap-Matrix (Vanderbilt PP)
 Fermi-smearing in eV        SIGMA  =   0.03


--------------------------------------------------------------------------------------------------------


  energy-cutoff  :      600.00
  volume of cell :       83.14
      direct lattice vectors                 reciprocal lattice vectors
     0.000000000  3.464101615  3.464101615    -0.144337567  0.144337567  0.144337567
     3.464101615  0.000000000  3.464101615     0.144337567 -0.144337567  0.144337567
     3.464101615  3.464101615  0.000000000     0.144337567  0.144337567 -0.144337567

  length of vectors
     4.898979486  4.898979486  4.898979486     0.250000000  0.250000000  0.250000000


 
 k-points in units of 2pi/SCALE and weight: Gamma centered Monkhorst-Pack           
   0.00000000  0.00000000  0.00000000       0.001
  -0.08333333  0.08333333  0.08333333       0.005
  -0.16666667  0.16666667  0.16666667       0.005
  -0.25000000  0.25000000  0.25000000       0.005
  -0.33333333  0.33333333  0.33333333       0.005
  -0.41666667  0.41666667  0.41666667       0.005
  -0.50000000  0.50000000  0.50000000       0.002
   0.00000000  0.00000000  0.16666667       0.003
  -0.08333333  0.08333333  0.25000000       0.014
  -0.16666667  0.16666667  0.33333333       0.014
  -0.25000000  0.25000000  0.41666667       0.014
  -0.33333333  0.33333333  0.50000000       0.014
  -0.41666667  0.41666667  0.58333333       0.014
   0.50000000 -0.50000000 -0.33333333       0.014
   0.41666667 -0.41666667 -0.25000000       0.014
   0.33333333 -0.33333333 -0.16666667       0.014
   0.25000000 -0.25000000 -0.08333333       0.014
   0.16666667 -0.16666667  0.00000000       0.007
   0.00000000  0.00000000  0.33333333       0.003
  -0.08333333  0.08333333  0.41666667       0.014
  -0.16666667  0.16666667  0.50000000       0.014
  -0.25000000  0.25000000  0.58333333       0.014
  -0.33333333  0.33333333  0.66666667       0.014
   0.58333333 -0.58333333 -0.25000000       0.014
   0.50000000 -0.50000000 -0.16666667       0.014
   0.41666667 -0.41666667 -0.08333333       0.014
   0.33333333 -0.33333333  0.00000000       0.007
   0.00000000  0.00000000  0.50000000       0.003
  -0.08333333  0.08333333  0.58333333       0.014
  -0.16666667  0.16666667  0.66666667       0.014
  -0.25000000  0.25000000  0.75000000       0.014
   0.66666667 -0.66666667 -0.16666667       0.014
   0.58333333 -0.58333333 -0.08333333       0.014
   0.50000000 -0.50000000  0.00000000       0.007
   0.00000000  0.00000000  0.66666667       0.003
  -0.08333333  0.08333333  0.75000000       0.014
  -0.16666667  0.16666667  0.83333333       0.014
   0.75000000 -0.75000000 -0.08333333       0.014
   0.66666667 -0.66666667  0.00000000       0.007
   0.00000000  0.00000000  0.83333333       0.003
  -0.08333333  0.08333333  0.91666667       0.014
   0.83333333 -0.83333333  0.00000000       0.007
   0.00000000  0.00000000  1.00000000       0.002
   0.00000000  0.16666667  0.33333333       0.014
  -0.08333333  0.25000000  0.41666667       0.028
  -0.16666667  0.33333333  0.50000000       0.028
  -0.25000000  0.41666667  0.58333333       0.028
   0.66666667 -0.50000000 -0.33333333       0.014
   0.00000000  0.16666667  0.50000000       0.014
  -0.08333333  0.25000000  0.58333333       0.028
  -0.16666667  0.33333333  0.66666667       0.028
   0.75000000 -0.58333333 -0.25000000       0.028
   0.66666667 -0.50000000 -0.16666667       0.028
   0.58333333 -0.41666667 -0.08333333       0.028
   0.50000000 -0.33333333  0.00000000       0.014
  -0.00000000  0.16666667  0.66666667       0.014
  -0.08333333  0.25000000  0.75000000       0.028
   0.83333333 -0.66666667 -0.16666667       0.028
   0.75000000 -0.58333333 -0.08333333       0.028
   0.66666667 -0.50000000  0.00000000       0.014
   0.00000000  0.16666667  0.83333333       0.014
   0.91666667 -0.75000000 -0.08333333       0.028
   0.83333333 -0.66666667  0.00000000       0.014
   1.00000000 -0.83333333  0.00000000       0.007
   0.00000000  0.33333333  0.66666667       0.014
   0.91666667 -0.58333333 -0.25000000       0.028
   0.83333333 -0.50000000 -0.16666667       0.014
   1.00000000 -0.66666667 -0.16666667       0.014
   0.91666667 -0.58333333 -0.08333333       0.028
   0.83333333 -0.50000000  0.00000000       0.014
   1.00000000 -0.66666667  0.00000000       0.007
   1.00000000 -0.50000000  0.00000000       0.003
 
 k-points in reciprocal lattice and weights: Gamma centered Monkhorst-Pack           
   0.00000000  0.00000000  0.00000000       0.001
   0.08333333  0.00000000  0.00000000       0.005
   0.16666667  0.00000000  0.00000000       0.005
   0.25000000  0.00000000  0.00000000       0.005
   0.33333333  0.00000000  0.00000000       0.005
   0.41666667  0.00000000  0.00000000       0.005
   0.50000000  0.00000000  0.00000000       0.002
   0.08333333  0.08333333  0.00000000       0.003
   0.16666667  0.08333333  0.00000000       0.014
   0.25000000  0.08333333  0.00000000       0.014
   0.33333333  0.08333333  0.00000000       0.014
   0.41666667  0.08333333  0.00000000       0.014
   0.50000000  0.08333333  0.00000000       0.014
  -0.41666667  0.08333333  0.00000000       0.014
  -0.33333333  0.08333333  0.00000000       0.014
  -0.25000000  0.08333333  0.00000000       0.014
  -0.16666667  0.08333333  0.00000000       0.014
  -0.08333333  0.08333333  0.00000000       0.007
   0.16666667  0.16666667  0.00000000       0.003
   0.25000000  0.16666667  0.00000000       0.014
   0.33333333  0.16666667  0.00000000       0.014
   0.41666667  0.16666667  0.00000000       0.014
   0.50000000  0.16666667  0.00000000       0.014
  -0.41666667  0.16666667  0.00000000       0.014
  -0.33333333  0.16666667  0.00000000       0.014
  -0.25000000  0.16666667  0.00000000       0.014
  -0.16666667  0.16666667  0.00000000       0.007
   0.25000000  0.25000000  0.00000000       0.003
   0.33333333  0.25000000  0.00000000       0.014
   0.41666667  0.25000000  0.00000000       0.014
   0.50000000  0.25000000  0.00000000       0.014
  -0.41666667  0.25000000  0.00000000       0.014
  -0.33333333  0.25000000  0.00000000       0.014
  -0.25000000  0.25000000  0.00000000       0.007
   0.33333333  0.33333333  0.00000000       0.003
   0.41666667  0.33333333  0.00000000       0.014
   0.50000000  0.33333333  0.00000000       0.014
  -0.41666667  0.33333333  0.00000000       0.014
  -0.33333333  0.33333333  0.00000000       0.007
   0.41666667  0.41666667  0.00000000       0.003
   0.50000000  0.41666667  0.00000000       0.014
  -0.41666667  0.41666667  0.00000000       0.007
   0.50000000  0.50000000  0.00000000       0.002
   0.25000000  0.16666667  0.08333333       0.014
   0.33333333  0.16666667  0.08333333       0.028
   0.41666667  0.16666667  0.08333333       0.028
   0.50000000  0.16666667  0.08333333       0.028
  -0.41666667  0.16666667  0.08333333       0.014
   0.33333333  0.25000000  0.08333333       0.014
   0.41666667  0.25000000  0.08333333       0.028
   0.50000000  0.25000000  0.08333333       0.028
  -0.41666667  0.25000000  0.08333333       0.028
  -0.33333333  0.25000000  0.08333333       0.028
  -0.25000000  0.25000000  0.08333333       0.028
  -0.16666667  0.25000000  0.08333333       0.014
   0.41666667  0.33333333  0.08333333       0.014
   0.50000000  0.33333333  0.08333333       0.028
  -0.41666667  0.33333333  0.08333333       0.028
  -0.33333333  0.33333333  0.08333333       0.028
  -0.25000000  0.33333333  0.08333333       0.014
   0.50000000  0.41666667  0.08333333       0.014
  -0.41666667  0.41666667  0.08333333       0.028
  -0.33333333  0.41666667  0.08333333       0.014
  -0.41666667  0.50000000  0.08333333       0.007
   0.50000000  0.33333333  0.16666667       0.014
  -0.41666667  0.33333333  0.16666667       0.028
  -0.33333333  0.33333333  0.16666667       0.014
  -0.41666667  0.41666667  0.16666667       0.014
  -0.33333333  0.41666667  0.16666667       0.028
  -0.25000000  0.41666667  0.16666667       0.014
  -0.33333333  0.50000000  0.16666667       0.007
  -0.25000000  0.50000000  0.25000000       0.003
 
 position of ions in fractional coordinates (direct lattice) 
   0.00000000  0.00000000  0.00000000
   0.25000000  0.25000000  0.25000000
 
 position of ions in cartesian coordinates  (Angst):
   0.00000000  0.00000000  0.00000000
   1.73205081  1.73205081  1.73205081
 


--------------------------------------------------------------------------------------------------------


 k-point  1 :   0.0000 0.0000 0.0000  plane waves:    2733
 k-point  2 :   0.0833 0.0000 0.0000  plane waves:    2743
 k-point  3 :   0.1667 0.0000 0.0000  plane waves:    2770
 k-point  4 :   0.2500 0.0000 0.0000  plane waves:    2776
 k-point  5 :   0.3333 0.0000 0.0000  plane waves:    2785
 k-point  6 :   0.4167 0.0000 0.0000  plane waves:    2779
 k-point  7 :   0.5000 0.0000 0.0000  plane waves:    2788
 k-point  8 :   0.0833 0.0833 0.0000  plane waves:    2754
 k-point  9 :   0.1667 0.0833 0.0000  plane waves:    2763
 k-point 10 :   0.2500 0.0833 0.0000  plane waves:    2764
 k-point 11 :   0.3333 0.0833 0.0000  plane waves:    2775
 k-point 12 :   0.4167 0.0833 0.0000  plane waves:    2777
 k-point 13 :   0.5000 0.0833 0.0000  plane waves:    2781
 k-point 14 :  -0.4167 0.0833 0.0000  plane waves:    2791
 k-point 15 :  -0.3333 0.0833 0.0000  plane waves:    2777
 k-point 16 :  -0.2500 0.0833 0.0000  plane waves:    2773
 k-point 17 :  -0.1667 0.0833 0.0000  plane waves:    2771
 k-point 18 :  -0.0833 0.0833 0.0000  plane waves:    2759
 k-point 19 :   0.1667 0.1667 0.0000  plane waves:    2754
 k-point 20 :   0.2500 0.1667 0.0000  plane waves:    2771
 k-point 21 :   0.3333 0.1667 0.0000  plane waves:    2771
 k-point 22 :   0.4167 0.1667 0.0000  plane waves:    2772
 k-point 23 :   0.5000 0.1667 0.0000  plane waves:    2772
 k-point 24 :  -0.4167 0.1667 0.0000  plane waves:    2773
 k-point 25 :  -0.3333 0.1667 0.0000  plane waves:    2779
 k-point 26 :  -0.2500 0.1667 0.0000  plane waves:    2776
 k-point 27 :  -0.1667 0.1667 0.0000  plane waves:    2790
 k-point 28 :   0.2500 0.2500 0.0000  plane waves:    2786
 k-point 29 :   0.3333 0.2500 0.0000  plane waves:    2781
 k-point 30 :   0.4167 0.2500 0.0000  plane waves:    2763
 k-point 31 :   0.5000 0.2500 0.0000  plane waves:    2783
 k-point 32 :  -0.4167 0.2500 0.0000  plane waves:    2767
 k-point 33 :  -0.3333 0.2500 0.0000  plane waves:    2773
 k-point 34 :  -0.2500 0.2500 0.0000  plane waves:    2754
 k-point 35 :   0.3333 0.3333 0.0000  plane waves:    2798
 k-point 36 :   0.4167 0.3333 0.0000  plane waves:    2781
 k-point 37 :   0.5000 0.3333 0.0000  plane waves:    2784
 k-point 38 :  -0.4167 0.3333 0.0000  plane waves:    2785
 k-point 39 :  -0.3333 0.3333 0.0000  plane waves:    2774
 k-point 40 :   0.4167 0.4167 0.0000  plane waves:    2790
 k-point 41 :   0.5000 0.4167 0.0000  plane waves:    2780
 k-point 42 :  -0.4167 0.4167 0.0000  plane waves:    2790
 k-point 43 :   0.5000 0.5000 0.0000  plane waves:    2778
 k-point 44 :   0.2500 0.1667 0.0833  plane waves:    2764
 k-point 45 :   0.3333 0.1667 0.0833  plane waves:    2782
 k-point 46 :   0.4167 0.1667 0.0833  plane waves:    2773
 k-point 47 :   0.5000 0.1667 0.0833  plane waves:    2780
 k-point 48 :  -0.4167 0.1667 0.0833  plane waves:    2776
 k-point 49 :   0.3333 0.2500 0.0833  plane waves:    2778
 k-point 50 :   0.4167 0.2500 0.0833  plane waves:    2772
 k-point 51 :   0.5000 0.2500 0.0833  plane waves:    2775
 k-point 52 :  -0.4167 0.2500 0.0833  plane waves:    2775
 k-point 53 :  -0.3333 0.2500 0.0833  plane waves:    2773
 k-point 54 :  -0.2500 0.2500 0.0833  plane waves:    2773
 k-point 55 :  -0.1667 0.2500 0.0833  plane waves:    2770
 k-point 56 :   0.4167 0.3333 0.0833  plane waves:    2774
 k-point 57 :   0.5000 0.3333 0.0833  plane waves:    2775
 k-point 58 :  -0.4167 0.3333 0.0833  plane waves:    2767
 k-point 59 :  -0.3333 0.3333 0.0833  plane waves:    2773
 k-point 60 :  -0.2500 0.3333 0.0833  plane waves:    2777
 k-point 61 :   0.5000 0.4167 0.0833  plane waves:    2778
 k-point 62 :  -0.4167 0.4167 0.0833  plane waves:    2779
 k-point 63 :  -0.3333 0.4167 0.0833  plane waves:    2785
 k-point 64 :  -0.4167 0.5000 0.0833  plane waves:    2778
 k-point 65 :   0.5000 0.3333 0.1667  plane waves:    2781
 k-point 66 :  -0.4167 0.3333 0.1667  plane waves:    2765
 k-point 67 :  -0.3333 0.3333 0.1667  plane waves:    2762
 k-point 68 :  -0.4167 0.4167 0.1667  plane waves:    2762
 k-point 69 :  -0.3333 0.4167 0.1667  plane waves:    2773
 k-point 70 :  -0.2500 0.4167 0.1667  plane waves:    2776
 k-point 71 :  -0.3333 0.5000 0.1667  plane waves:    2770
 k-point 72 :  -0.2500 0.5000 0.2500  plane waves:    2780

 maximum and minimum number of plane-waves per node :      2798     2733

 maximum number of plane-waves:      2798
 maximum index in each direction: 
   IXMAX=   10   IYMAX=    9   IZMAX=    9
   IXMIN=  -10   IYMIN=  -10   IZMIN=  -10

 WARNING: aliasing errors must be expected set NGX to  42 to avoid them
 WARNING: aliasing errors must be expected set NGY to  40 to avoid them
 WARNING: aliasing errors must be expected set NGZ to  40 to avoid them
 aliasing errors are usually negligible using standard VASP settings
 and one can safely disregard these warnings

 serial   3D FFT for wavefunctions
 parallel 3D FFT for charge:
    minimum data exchange during FFTs selected (reduces bandwidth)


 total amount of memory used by VASP on root node    55216. kBytes
========================================================================

   base      :      30000. kBytes
   nonl-proj :      12992. kBytes
   fftplans  :       1986. kBytes
   grid      :       3744. kBytes
   one-center:          6. kBytes
   wavefun   :       6488. kBytes
 
     INWAV:  cpu time    0.00: real time    0.00
 Broyden mixing: mesh for mixing (old mesh)
   NGX = 19   NGY = 19   NGZ = 19
  (NGX  = 60   NGY  = 60   NGZ  = 60)
  gives a total of   6859 points

 initial charge density was supplied:
 charge density of overlapping atoms calculated
 number of electron       8.0000000 magnetization 
 keeping initial charge density in first step


--------------------------------------------------------------------------------------------------------


 Maximum index for augmentation-charges         2631 (set IRDMAX)


--------------------------------------------------------------------------------------------------------


 First call to EWALD:  gamma=   0.406
 Maximum number of real-space cells 3x 3x 3
 Maximum number of reciprocal cells 3x 3x 3

 FEWALD executed in parallel
    FEWALD:  cpu time    0.00: real time    0.00


----------------------------------------- Iteration    1(   1)  ---------------------------------------


    POTLOK:  cpu time    0.03: real time    0.03
    SETDIJ:  cpu time    0.00: real time    0.00
     EDDAV:  cpu time    0.60: real time    0.61
       DOS:  cpu time    0.00: real time    0.00
    --------------------------------------------
      LOOP:  cpu time    0.63: real time    0.64

 eigenvalue-minimisations  :  1152
 total energy-change (2. order) : 0.8844863E+01  (-0.2816991E+03)
 number of electron       8.0000000 magnetization 
 augmentation part        8.0000000 magnetization 

 Free energy of the ion-electron system (eV)
  ---------------------------------------------------
  alpha Z        PSCENC =         1.61961561
  Ewald energy   TEWEN  =      -179.13734616
  -Hartree energ DENC   =       -24.50656821
  -exchange      EXHF   =         0.00000000
  -V(xc)+E(xc)   XCENC  =       -20.81592343
  PAW double counting   =        65.95520812      -30.76852678
  entropy T*S    EENTRO =        -0.00130838
  eigenvalues    EBANDS =        -9.63340652
  atomic energy  EATOM  =       206.13311910
  ---------------------------------------------------
  free energy    TOTEN  =         8.84486334 eV

  energy without entropy =        8.84617172  energy(sigma->0) =        8.84551753


--------------------------------------------------------------------------------------------------------




----------------------------------------- Iteration    1(   2)  ---------------------------------------


     EDDAV:  cpu time    0.92: real time    0.92
       DOS:  cpu time    0.00: real time    0.00
    --------------------------------------------
      LOOP:  cpu time    0.92: real time    0.92

 eigenvalue-minimisations  :  1936
 total energy-change (2. order) :-0.1619713E+02  (-0.1581929E+02)
 number of electron       8.0000000 magnetization 
 augmentation part        8.0000000 magnetization 

 Free energy of the ion-electron system (eV)
  ---------------------------------------------------
  alpha Z        PSCENC =         1.61961561
  Ewald energy   TEWEN  =      -179.13734616
  -Hartree energ DENC   =       -24.50656821
  -exchange      EXHF   =         0.00000000
  -V(xc)+E(xc)   XCENC  =       -20.81592343
  PAW double counting   =        65.95520812      -30.76852678
  entropy T*S    EENTRO =        -0.00092531
  eigenvalues    EBANDS =       -25.83091638
  atomic energy  EATOM  =       206.13311910
  ---------------------------------------------------
  free energy    TOTEN  =        -7.35226344 eV

  energy without entropy =       -7.35133813  energy(sigma->0) =       -7.35180079


--------------------------------------------------------------------------------------------------------




----------------------------------------- Iteration    1(   3)  ---------------------------------------


     EDDAV:  cpu time    0.72: real time    0.72
       DOS:  cpu time    0.00: real time    0.00
    --------------------------------------------
      LOOP:  cpu time    0.72: real time    0.72

 eigenvalue-minimisations  :  1440
 total energy-change (2. order) :-0.4070629E+00  (-0.4056592E+00)
 number of electron       8.0000000 magnetization 
 augmentation part        8.0000000 magnetization 

 Free energy of the ion-electron system (eV)
  ---------------------------------------------------
  alpha Z        PSCENC =         1.61961561
  Ewald energy   TEWEN  =      -179.13734616
  -Hartree energ DENC   =       -24.50656821
  -exchange      EXHF   =         0.00000000
  -V(xc)+E(xc)   XCENC  =       -20.81592343
  PAW double counting   =        65.95520812      -30.76852678
  entropy T*S    EENTRO =        -0.00080914
  eigenvalues    EBANDS =       -26.23809547
  atomic energy  EATOM  =       206.13311910
  ---------------------------------------------------
  free energy    TOTEN  =        -7.75932637 eV

  energy without entropy =       -7.75851723  energy(sigma->0) =       -7.75892180


--------------------------------------------------------------------------------------------------------




----------------------------------------- Iteration    1(   4)  ---------------------------------------


     EDDAV:  cpu time    0.79: real time    0.79
       DOS:  cpu time    0.00: real time    0.00
    --------------------------------------------
      LOOP:  cpu time    0.79: real time    0.80

 eigenvalue-minimisations  :  1632
 total energy-change (2. order) :-0.2788441E-02  (-0.2788422E-02)
 number of electron       8.0000000 magnetization 
 augmentation part        8.0000000 magnetization 

 Free energy of the ion-electron system (eV)
  ---------------------------------------------------
  alpha Z        PSCENC =         1.61961561
  Ewald energy   TEWEN  =      -179.13734616
  -Hartree energ DENC   =       -24.50656821
  -exchange      EXHF   =         0.00000000
  -V(xc)+E(xc)   XCENC  =       -20.81592343
  PAW double counting   =        65.95520812      -30.76852678
  entropy T*S    EENTRO =        -0.00080820
  eigenvalues    EBANDS =       -26.24088486
  atomic energy  EATOM  =       206.13311910
  ---------------------------------------------------
  free energy    TOTEN  =        -7.76211481 eV

  energy without entropy =       -7.76130662  energy(sigma->0) =       -7.76171072


--------------------------------------------------------------------------------------------------------




----------------------------------------- Iteration    1(   5)  ---------------------------------------


     EDDAV:  cpu time    0.76: real time    0.76
       DOS:  cpu time    0.00: real time    0.00
    CHARGE:  cpu time    0.04: real time    0.04
    MIXING:  cpu time    0.00: real time    0.00
    --------------------------------------------
      LOOP:  cpu time    0.80: real time    0.81

 eigenvalue-minimisations  :  1544
 total energy-change (2. order) :-0.1310469E-04  (-0.1310466E-04)
 number of electron       8.0000001 magnetization 
 augmentation part       -0.4972869 magnetization 

 Broyden mixing:
  rms(total) = 0.15099E+00    rms(broyden)= 0.15098E+00
  rms(prec ) = 0.37097E+00
  weight for this iteration     100.00

 Free energy of the ion-electron system (eV)
  ---------------------------------------------------
  alpha Z        PSCENC =         1.61961561
  Ewald energy   TEWEN  =      -179.13734616
  -Hartree energ DENC   =       -24.50656821
  -exchange      EXHF   =         0.00000000
  -V(xc)+E(xc)   XCENC  =       -20.81592343
  PAW double counting   =        65.95520812      -30.76852678
  entropy T*S    EENTRO =        -0.00080815
  eigenvalues    EBANDS =       -26.24089801
  atomic energy  EATOM  =       206.13311910
  ---------------------------------------------------
  free energy    TOTEN  =        -7.76212792 eV

  energy without entropy =       -7.76131977  energy(sigma->0) =       -7.76172384


--------------------------------------------------------------------------------------------------------




----------------------------------------- Iteration    1(   6)  ---------------------------------------


    POTLOK:  cpu time    0.03: real time    0.03
    SETDIJ:  cpu time    0.00: real time    0.00
     EDDAV:  cpu time    0.66: real time    0.67
       DOS:  cpu time    0.00: real time    0.00
    CHARGE:  cpu time    0.04: real time    0.04
    MIXING:  cpu time    0.00: real time    0.00
    --------------------------------------------
      LOOP:  cpu time    0.74: real time    0.74

 eigenvalue-minimisations  :  1304
 total energy-change (2. order) :-0.3179257E-02  (-0.3190977E-03)
 number of electron       8.0000001 magnetization 
 augmentation part       -0.4994667 magnetization 

 Broyden mixing:
  rms(total) = 0.96068E-01    rms(broyden)= 0.96068E-01
  rms(prec ) = 0.23908E+00
  weight for this iteration     100.00

 eigenvalues of (default mixing * dielectric matrix)
  average eigenvalue GAMMA=   2.7307
  2.7307

 Free energy of the ion-electron system (eV)
  ---------------------------------------------------
  alpha Z        PSCENC =         1.61961561
  Ewald energy   TEWEN  =      -179.13734616
  -Hartree energ DENC   =       -24.65734131
  -exchange      EXHF   =         0.00000000
  -V(xc)+E(xc)   XCENC  =       -20.79164704
  PAW double counting   =        65.10741735      -29.88759793
  entropy T*S    EENTRO =        -0.00080797
  eigenvalues    EBANDS =       -26.15071883
  atomic energy  EATOM  =       206.13311910
  ---------------------------------------------------
  free energy    TOTEN  =        -7.76530718 eV

  energy without entropy =       -7.76449920  energy(sigma->0) =       -7.76490319


--------------------------------------------------------------------------------------------------------




----------------------------------------- Iteration    1(   7)  ---------------------------------------


    POTLOK:  cpu time    0.02: real time    0.03
    SETDIJ:  cpu time    0.00: real time    0.00
     EDDAV:  cpu time    0.65: real time    0.65
       DOS:  cpu time    0.00: real time    0.00
    CHARGE:  cpu time    0.04: real time    0.04
    MIXING:  cpu time    0.00: real time    0.00
    --------------------------------------------
      LOOP:  cpu time    0.72: real time    0.73

 eigenvalue-minimisations  :  1280
 total energy-change (2. order) : 0.3338745E-03  (-0.1048377E-02)
 number of electron       8.0000001 magnetization 
 augmentation part       -0.5036857 magnetization 

 Broyden mixing:
  rms(total) = 0.70267E-02    rms(broyden)= 0.70267E-02
  rms(prec ) = 0.22821E-01
  weight for this iteration     100.00

 eigenvalues of (default mixing * dielectric matrix)
  average eigenvalue GAMMA=   2.5264
  2.5264  2.5264

 Free energy of the ion-electron system (eV)
  ---------------------------------------------------
  alpha Z        PSCENC =         1.61961561
  Ewald energy   TEWEN  =      -179.13734616
  -Hartree energ DENC   =       -25.18780490
  -exchange      EXHF   =         0.00000000
  -V(xc)+E(xc)   XCENC  =       -20.71191048
  PAW double counting   =        63.74295577      -28.47174300
  entropy T*S    EENTRO =        -0.00081112
  eigenvalues    EBANDS =       -25.75104811
  atomic energy  EATOM  =       206.13311910
  ---------------------------------------------------
  free energy    TOTEN  =        -7.76497330 eV

  energy without entropy =       -7.76416218  energy(sigma->0) =       -7.76456774


--------------------------------------------------------------------------------------------------------




----------------------------------------- Iteration    1(   8)  ---------------------------------------


    POTLOK:  cpu time    0.02: real time    0.03
    SETDIJ:  cpu time    0.00: real time    0.00
     EDDAV:  cpu time    0.61: real time    0.61
       DOS:  cpu time    0.00: real time    0.00
    CHARGE:  cpu time    0.04: real time    0.04
    MIXING:  cpu time    0.00: real time    0.00
    --------------------------------------------
      LOOP:  cpu time    0.68: real time    0.69

 eigenvalue-minimisations  :  1168
 total energy-change (2. order) :-0.6828490E-03  (-0.1650650E-03)
 number of electron       8.0000001 magnetization 
 augmentation part       -0.5025081 magnetization 

 Broyden mixing:
  rms(total) = 0.40380E-02    rms(broyden)= 0.40380E-02
  rms(prec ) = 0.10653E-01
  weight for this iteration     100.00

 eigenvalues of (default mixing * dielectric matrix)
  average eigenvalue GAMMA=   2.1509
  1.1084  2.9782  2.3663

 Free energy of the ion-electron system (eV)
  ---------------------------------------------------
  alpha Z        PSCENC =         1.61961561
  Ewald energy   TEWEN  =      -179.13734616
  -Hartree energ DENC   =       -25.36687090
  -exchange      EXHF   =         0.00000000
  -V(xc)+E(xc)   XCENC  =       -20.69954519
  PAW double counting   =        63.97882489      -28.72228742
  entropy T*S    EENTRO =        -0.00080854
  eigenvalues    EBANDS =       -25.57035755
  atomic energy  EATOM  =       206.13311910
  ---------------------------------------------------
  free energy    TOTEN  =        -7.76565615 eV

  energy without entropy =       -7.76484761  energy(sigma->0) =       -7.76525188


--------------------------------------------------------------------------------------------------------




----------------------------------------- Iteration    1(   9)  ---------------------------------------


    POTLOK:  cpu time    0.03: real time    0.03
    SETDIJ:  cpu time    0.00: real time    0.00
     EDDAV:  cpu time    0.83: real time    0.84
       DOS:  cpu time    0.00: real time    0.00
    CHARGE:  cpu time    0.04: real time    0.04
    MIXING:  cpu time    0.00: real time    0.00
    --------------------------------------------
      LOOP:  cpu time    0.91: real time    0.91

 eigenvalue-minimisations  :  1720
 total energy-change (2. order) :-0.9445775E-04  (-0.1016013E-04)
 number of electron       8.0000001 magnetization 
 augmentation part       -0.5026821 magnetization 

 Broyden mixing:
  rms(total) = 0.12994E-02    rms(broyden)= 0.12994E-02
  rms(prec ) = 0.30553E-02
  weight for this iteration     100.00

 eigenvalues of (default mixing * dielectric matrix)
  average eigenvalue GAMMA=   2.3861
  0.9947  3.4958  2.8012  2.2526

 Free energy of the ion-electron system (eV)
  ---------------------------------------------------
  alpha Z        PSCENC =         1.61961561
  Ewald energy   TEWEN  =      -179.13734616
  -Hartree energ DENC   =       -25.40852945
  -exchange      EXHF   =         0.00000000
  -V(xc)+E(xc)   XCENC  =       -20.69391649
  PAW double counting   =        63.87904348      -28.61902441
  entropy T*S    EENTRO =        -0.00080845
  eigenvalues    EBANDS =       -25.53790383
  atomic energy  EATOM  =       206.13311910
  ---------------------------------------------------
  free energy    TOTEN  =        -7.76575061 eV

  energy without entropy =       -7.76494216  energy(sigma->0) =       -7.76534638


--------------------------------------------------------------------------------------------------------




----------------------------------------- Iteration    1(  10)  ---------------------------------------


    POTLOK:  cpu time    0.02: real time    0.03
    SETDIJ:  cpu time    0.00: real time    0.00
     EDDAV:  cpu time    0.62: real time    0.62
       DOS:  cpu time    0.00: real time    0.00
    CHARGE:  cpu time    0.04: real time    0.04
    MIXING:  cpu time    0.00: real time    0.00
    --------------------------------------------
      LOOP:  cpu time    0.69: real time    0.70

 eigenvalue-minimisations  :  1192
 total energy-change (2. order) :-0.4543471E-04  (-0.9122372E-05)
 number of electron       8.0000001 magnetization 
 augmentation part       -0.5026500 magnetization 

 Broyden mixing:
  rms(total) = 0.24600E-03    rms(broyden)= 0.24600E-03
  rms(prec ) = 0.51694E-03
  weight for this iteration     100.00

 eigenvalues of (default mixing * dielectric matrix)
  average eigenvalue GAMMA=   2.1531
  3.5764  2.4720  2.4720  1.0350  1.2100

 Free energy of the ion-electron system (eV)
  ---------------------------------------------------
  alpha Z        PSCENC =         1.61961561
  Ewald energy   TEWEN  =      -179.13734616
  -Hartree energ DENC   =       -25.41586908
  -exchange      EXHF   =         0.00000000
  -V(xc)+E(xc)   XCENC  =       -20.69332544
  PAW double counting   =        63.82857141      -28.56670344
  entropy T*S    EENTRO =        -0.00080805
  eigenvalues    EBANDS =       -25.53305000
  atomic energy  EATOM  =       206.13311910
  ---------------------------------------------------
  free energy    TOTEN  =        -7.76579604 eV

  energy without entropy =       -7.76498799  energy(sigma->0) =       -7.76539202


--------------------------------------------------------------------------------------------------------




----------------------------------------- Iteration    1(  11)  ---------------------------------------


    POTLOK:  cpu time    0.03: real time    0.03
    SETDIJ:  cpu time    0.00: real time    0.00
     EDDAV:  cpu time    0.85: real time    0.85
       DOS:  cpu time    0.00: real time    0.00
    CHARGE:  cpu time    0.04: real time    0.04
    MIXING:  cpu time    0.00: real time    0.00
    --------------------------------------------
      LOOP:  cpu time    0.92: real time    0.93

 eigenvalue-minimisations  :  1768
 total energy-change (2. order) :-0.2038118E-07  (-0.5706186E-07)
 number of electron       8.0000001 magnetization 
 augmentation part       -0.5026721 magnetization 

 Broyden mixing:
  rms(total) = 0.96294E-04    rms(broyden)= 0.96293E-04
  rms(prec ) = 0.21905E-03
  weight for this iteration     100.00

 eigenvalues of (default mixing * dielectric matrix)
  average eigenvalue GAMMA=   2.2539
  3.7475  2.9125  2.4956  2.3825  0.9926  0.9926

 Free energy of the ion-electron system (eV)
  ---------------------------------------------------
  alpha Z        PSCENC =         1.61961561
  Ewald energy   TEWEN  =      -179.13734616
  -Hartree energ DENC   =       -25.41613426
  -exchange      EXHF   =         0.00000000
  -V(xc)+E(xc)   XCENC  =       -20.69310597
  PAW double counting   =        63.82916888      -28.56721980
  entropy T*S    EENTRO =        -0.00080808
  eigenvalues    EBANDS =       -25.53308538
  atomic energy  EATOM  =       206.13311910
  ---------------------------------------------------
  free energy    TOTEN  =        -7.76579606 eV

  energy without entropy =       -7.76498799  energy(sigma->0) =       -7.76539202


--------------------------------------------------------------------------------------------------------




----------------------------------------- Iteration    1(  12)  ---------------------------------------


    POTLOK:  cpu time    0.03: real time    0.03
    SETDIJ:  cpu time    0.00: real time    0.00
     EDDAV:  cpu time    0.62: real time    0.63
       DOS:  cpu time    0.00: real time    0.00
    CHARGE:  cpu time    0.04: real time    0.04
    MIXING:  cpu time    0.00: real time    0.00
    --------------------------------------------
      LOOP:  cpu time    0.70: real time    0.71

 eigenvalue-minimisations  :  1184
 total energy-change (2. order) :-0.5633049E-06  (-0.5062721E-07)
 number of electron       8.0000001 magnetization 
 augmentation part       -0.5026629 magnetization 

 Broyden mixing:
  rms(total) = 0.16745E-04    rms(broyden)= 0.16745E-04
  rms(prec ) = 0.40539E-04
  weight for this iteration     100.00

 eigenvalues of (default mixing * dielectric matrix)
  average eigenvalue GAMMA=   2.0988
  3.7629  2.9453  2.5951  2.2268  0.9576  1.0293  1.1748

 Free energy of the ion-electron system (eV)
  ---------------------------------------------------
  alpha Z        PSCENC =         1.61961561
  Ewald energy   TEWEN  =      -179.13734616
  -Hartree energ DENC   =       -25.41694567
  -exchange      EXHF   =         0.00000000
  -V(xc)+E(xc)   XCENC  =       -20.69295701
  PAW double counting   =        63.83527953      -28.57351046
  entropy T*S    EENTRO =        -0.00080806
  eigenvalues    EBANDS =       -25.53224351
  atomic energy  EATOM  =       206.13311910
  ---------------------------------------------------
  free energy    TOTEN  =        -7.76579663 eV

  energy without entropy =       -7.76498857  energy(sigma->0) =       -7.76539260


--------------------------------------------------------------------------------------------------------




----------------------------------------- Iteration    1(  13)  ---------------------------------------


    POTLOK:  cpu time    0.02: real time    0.03
    SETDIJ:  cpu time    0.00: real time    0.00
     EDDAV:  cpu time    0.80: real time    0.80
       DOS:  cpu time    0.00: real time    0.00
    CHARGE:  cpu time    0.04: real time    0.04
    MIXING:  cpu time    0.00: real time    0.00
    --------------------------------------------
      LOOP:  cpu time    0.87: real time    0.88

 eigenvalue-minimisations  :  1672
 total energy-change (2. order) : 0.6614010E-07  (-0.4491331E-09)
 number of electron       8.0000001 magnetization 
 augmentation part       -0.5026647 magnetization 

 Broyden mixing:
  rms(total) = 0.32944E-05    rms(broyden)= 0.32944E-05
  rms(prec ) = 0.68070E-05
  weight for this iteration     100.00

 eigenvalues of (default mixing * dielectric matrix)
  average eigenvalue GAMMA=   2.1673
  3.7809  2.9420  2.9420  2.3417  2.3417  1.0185  1.0185  0.9532

 Free energy of the ion-electron system (eV)
  ---------------------------------------------------
  alpha Z        PSCENC =         1.61961561
  Ewald energy   TEWEN  =      -179.13734616
  -Hartree energ DENC   =       -25.41671775
  -exchange      EXHF   =         0.00000000
  -V(xc)+E(xc)   XCENC  =       -20.69297437
  PAW double counting   =        63.83420863      -28.57239594
  entropy T*S    EENTRO =        -0.00080806
  eigenvalues    EBANDS =       -25.53249763
  atomic energy  EATOM  =       206.13311910
  ---------------------------------------------------
  free energy    TOTEN  =        -7.76579656 eV

  energy without entropy =       -7.76498850  energy(sigma->0) =       -7.76539253


--------------------------------------------------------------------------------------------------------




----------------------------------------- Iteration    1(  14)  ---------------------------------------


    POTLOK:  cpu time    0.02: real time    0.03
    SETDIJ:  cpu time    0.00: real time    0.00
     EDDAV:  cpu time    0.60: real time    0.61
       DOS:  cpu time    0.00: real time    0.00
    CHARGE:  cpu time    0.04: real time    0.04
    MIXING:  cpu time    0.00: real time    0.00
    --------------------------------------------
      LOOP:  cpu time    0.68: real time    0.69

 eigenvalue-minimisations  :  1152
 total energy-change (2. order) : 0.1129649E-07  (-0.6089403E-10)
 number of electron       8.0000001 magnetization 
 augmentation part       -0.5026649 magnetization 

 Broyden mixing:
  rms(total) = 0.11446E-05    rms(broyden)= 0.11446E-05
  rms(prec ) = 0.26975E-05
  weight for this iteration     100.00

 eigenvalues of (default mixing * dielectric matrix)
  average eigenvalue GAMMA=   2.0295
  3.7819  2.9828  2.7461  2.5808  2.2277  1.0362  0.9924  0.9924  0.9248

 Free energy of the ion-electron system (eV)
  ---------------------------------------------------
  alpha Z        PSCENC =         1.61961561
  Ewald energy   TEWEN  =      -179.13734616
  -Hartree energ DENC   =       -25.41674819
  -exchange      EXHF   =         0.00000000
  -V(xc)+E(xc)   XCENC  =       -20.69297360
  PAW double counting   =        63.83387052      -28.57205172
  entropy T*S    EENTRO =        -0.00080806
  eigenvalues    EBANDS =       -25.53247406
  atomic energy  EATOM  =       206.13311910
  ---------------------------------------------------
  free energy    TOTEN  =        -7.76579655 eV

  energy without entropy =       -7.76498849  energy(sigma->0) =       -7.76539252


--------------------------------------------------------------------------------------------------------




----------------------------------------- Iteration    1(  15)  ---------------------------------------


    POTLOK:  cpu time    0.03: real time    0.03
    SETDIJ:  cpu time    0.00: real time    0.00
     EDDAV:  cpu time    0.55: real time    0.55
       DOS:  cpu time    0.00: real time    0.00
    CHARGE:  cpu time    0.04: real time    0.04
    MIXING:  cpu time    0.00: real time    0.00
    --------------------------------------------
      LOOP:  cpu time    0.62: real time    0.63

 eigenvalue-minimisations  :   984
 total energy-change (2. order) :-0.1480117E-08  (-0.1278766E-11)
 number of electron       8.0000001 magnetization 
 augmentation part       -0.5026648 magnetization 

 Broyden mixing:
  rms(total) = 0.12056E-06    rms(broyden)= 0.12055E-06
  rms(prec ) = 0.19142E-06
  weight for this iteration     100.00

 eigenvalues of (default mixing * dielectric matrix)
  average eigenvalue GAMMA=   2.1090
  3.7849  2.9407  2.9407  2.7249  2.2253  2.4856  1.0418  0.9928  0.9928  0.9604

 Free energy of the ion-electron system (eV)
  ---------------------------------------------------
  alpha Z        PSCENC =         1.61961561
  Ewald energy   TEWEN  =      -179.13734616
  -Hartree energ DENC   =       -25.41675455
  -exchange      EXHF   =         0.00000000
  -V(xc)+E(xc)   XCENC  =       -20.69297402
  PAW double counting   =        63.83387581      -28.57205802
  entropy T*S    EENTRO =        -0.00080806
  eigenvalues    EBANDS =       -25.53246627
  atomic energy  EATOM  =       206.13311910
  ---------------------------------------------------
  free energy    TOTEN  =        -7.76579655 eV

  energy without entropy =       -7.76498849  energy(sigma->0) =       -7.76539252


--------------------------------------------------------------------------------------------------------




----------------------------------------- Iteration    1(  16)  ---------------------------------------


    POTLOK:  cpu time    0.03: real time    0.03
    SETDIJ:  cpu time    0.00: real time    0.00
     EDDAV:  cpu time    0.39: real time    0.39
       DOS:  cpu time    0.00: real time    0.00
    CHARGE:  cpu time    0.04: real time    0.04
    MIXING:  cpu time    0.00: real time    0.00
    --------------------------------------------
      LOOP:  cpu time    0.46: real time    0.47

 eigenvalue-minimisations  :   576
 total energy-change (2. order) :-0.4698961E-09  (-0.9113803E-13)
 number of electron       8.0000001 magnetization 
 augmentation part       -0.5026648 magnetization 

 Broyden mixing:
  rms(total) = 0.23545E-07    rms(broyden)= 0.23492E-07
  rms(prec ) = 0.49163E-07
  weight for this iteration     100.00

 eigenvalues of (default mixing * dielectric matrix)
  average eigenvalue GAMMA=   2.0202
  3.7856  3.0357  2.8747  2.5831  2.5831  2.2291  0.9642  0.9891  0.9891  1.0941
  1.0941

 Free energy of the ion-electron system (eV)
  ---------------------------------------------------
  alpha Z        PSCENC =         1.61961561
  Ewald energy   TEWEN  =      -179.13734616
  -Hartree energ DENC   =       -25.41675391
  -exchange      EXHF   =         0.00000000
  -V(xc)+E(xc)   XCENC  =       -20.69297416
  PAW double counting   =        63.83389264      -28.57207508
  entropy T*S    EENTRO =        -0.00080806
  eigenvalues    EBANDS =       -25.53246653
  atomic energy  EATOM  =       206.13311910
  ---------------------------------------------------
  free energy    TOTEN  =        -7.76579655 eV

  energy without entropy =       -7.76498849  energy(sigma->0) =       -7.76539252


--------------------------------------------------------------------------------------------------------




----------------------------------------- Iteration    1(  17)  ---------------------------------------


    POTLOK:  cpu time    0.02: real time    0.03
    SETDIJ:  cpu time    0.00: real time    0.00
     EDDAV:  cpu time    0.39: real time    0.39
       DOS:  cpu time    0.00: real time    0.00
    --------------------------------------------
      LOOP:  cpu time    0.42: real time    0.43

 eigenvalue-minimisations  :   576
 total energy-change (2. order) :-0.1648459E-10  (-0.1028843E-12)
 number of electron       8.0000001 magnetization 
 augmentation part       -0.5026648 magnetization 

 Free energy of the ion-electron system (eV)
  ---------------------------------------------------
  alpha Z        PSCENC =         1.61961561
  Ewald energy   TEWEN  =      -179.13734616
  -Hartree energ DENC   =       -25.41675389
  -exchange      EXHF   =         0.00000000
  -V(xc)+E(xc)   XCENC  =       -20.69297413
  PAW double counting   =        63.83389501      -28.57207750
  entropy T*S    EENTRO =        -0.00080806
  eigenvalues    EBANDS =       -25.53246654
  atomic energy  EATOM  =       206.13311910
  ---------------------------------------------------
  free energy    TOTEN  =        -7.76579655 eV

  energy without entropy =       -7.76498849  energy(sigma->0) =       -7.76539252


--------------------------------------------------------------------------------------------------------




 average (electrostatic) potential at core
  the test charge radii are     0.9892
  (the norm of the test charge is              1.0000)
       1 -89.4470       2 -89.4470
 
 
 
 E-fermi :   0.4120     XC(G=0):  -6.7943     alpha+bet : -5.7698


 k-point     1 :       0.0000    0.0000    0.0000
  band No.  band energies     occupation 
      1      -7.8686      2.00000
      2      -2.3015      2.00000
      3       0.5021      0.05297
      4       0.5021      0.05297
      5       0.5021      0.05297
      6       2.4976      0.00000
      7       2.4976      0.00000
      8       2.4976      0.00000

 k-point     2 :       0.0833    0.0000    0.0000
  band No.  band energies     occupation 
      1      -7.8242      2.00000
      2      -2.5006      2.00000
      3       0.4401      0.49129
      4       0.4401      0.49129
      5       0.5382      0.01276
      6       2.5905      0.00000
      7       2.5905      0.00000
      8       2.5970      0.00000

 k-point     3 :       0.1667    0.0000    0.0000
  band No.  band energies     occupation 
      1      -7.6939      2.00000
      2      -2.9853      2.00000
      3       0.2940      1.98237
      4       0.2940      1.98237
      5       0.5367      0.01359
      6       2.8132      0.00000
      7       2.8132      0.00000
      8       2.9544      0.00000

 k-point     4 :       0.2500    0.0000    0.0000
  band No.  band energies     occupation 
      1      -7.4884      2.00000
      2      -3.5789      2.00000
      3       0.1310      1.99997
      4       0.1310      1.99997
      5       0.4328      0.60631
      6       3.0565      0.00000
      7       3.0565      0.00000
      8       3.5696      0.00000

 k-point     5 :       0.3333    0.0000    0.0000
  band No.  band energies     occupation 
      1      -7.2332      2.00000
      2      -4.1568      2.00000
      3      -0.0052      2.00000
      4      -0.0052      2.00000
      5       0.2980      1.97931
      6       3.2368      0.00000
      7       3.2368      0.00000
      8       4.3226      0.00000

 k-point     6 :       0.4167    0.0000    0.0000
  band No.  band energies     occupation 
      1      -6.9891      2.00000
      2      -4.6094      2.00000
      3      -0.0929      2.00000
      4      -0.0929      2.00000
      5       0.1972      1.99963
      6       3.3304      0.00000
      7       3.3304      0.00000
      8       5.0348      0.00000

 k-point     7 :       0.5000    0.0000    0.0000
  band No.  band energies     occupation 
      1      -6.8777      2.00000
      2      -4.7925      2.00000
      3      -0.1231      2.00000
      4      -0.1231      2.00000
      5       0.1608      1.99991
      6       3.3570      0.00000
      7       3.3570      0.00000
      8       5.3670      0.00000

 k-point     8 :       0.0833    0.0833    0.0000
  band No.  band energies     occupation 
      1      -7.8092      2.00000
      2      -2.5588      2.00000
      3       0.3355      1.91058
      4       0.3355      1.91058
      5       0.7440      0.00000
      6       2.3711      0.00000
      7       2.7358      0.00000
      8       2.7358      0.00000

 k-point     9 :       0.1667    0.0833    0.0000
  band No.  band energies     occupation 
      1      -7.7069      2.00000
      2      -2.9301      2.00000
      3       0.1628      1.99991
      4       0.1692      1.99988
      5       0.9013      0.00000
      6       2.3822      0.00000
      7       2.9936      0.00000
      8       3.0418      0.00000

 k-point    10 :       0.2500    0.0833    0.0000
  band No.  band energies     occupation 
      1      -7.5247      2.00000
      2      -3.4660      2.00000
      3      -0.0611      2.00000
      4       0.0052      2.00000
      5       0.9133      0.00000
      6       2.6212      0.00000
      7       3.2572      0.00000
      8       3.5061      0.00000

 k-point    11 :       0.3333    0.0833    0.0000
  band No.  band energies     occupation 
      1      -7.2816      2.00000
      2      -4.0344      2.00000
      3      -0.2836      2.00000
      4      -0.1189      2.00000
      5       0.8310      0.00000
      6       2.9317      0.00000
      7       3.4407      0.00000
      8       4.0863      0.00000

 k-point    12 :       0.4167    0.0833    0.0000
  band No.  band energies     occupation 
      1      -7.0225      2.00000
      2      -4.5275      2.00000
      3      -0.4572      2.00000
      4      -0.1859      2.00000
      5       0.7369      0.00000
      6       3.1634      0.00000
      7       3.5140      0.00000
      8       4.7211      0.00000

 k-point    13 :       0.5000    0.0833    0.0000
  band No.  band energies     occupation 
      1      -6.8495      2.00000
      2      -4.8122      2.00000
      3      -0.5582      2.00000
      4      -0.1895      2.00000
      5       0.6764      0.00005
      6       3.2958      0.00000
      7       3.4988      0.00000
      8       5.1950      0.00000

 k-point    14 :      -0.4167    0.0833    0.0000
  band No.  band energies     occupation 
      1      -6.8893      2.00000
      2      -4.7495      2.00000
      3      -0.5764      2.00000
      4      -0.1307      2.00000
      5       0.6666      0.00008
      6       3.3564      0.00000
      7       3.4213      0.00000
      8       5.0954      0.00000

 k-point    15 :      -0.3333    0.0833    0.0000
  band No.  band energies     occupation 
      1      -7.1071      2.00000
      2      -4.3766      2.00000
      3      -0.5083      2.00000
      4      -0.0166      2.00000
      5       0.7054      0.00002
      6       3.2824      0.00000
      7       3.3340      0.00000
      8       4.5128      0.00000

 k-point    16 :      -0.2500    0.0833    0.0000
  band No.  band energies     occupation 
      1      -7.3686      2.00000
      2      -3.8465      2.00000
      3      -0.3552      2.00000
      4       0.1376      1.99997
      5       0.7675      0.00000
      6       3.0740      0.00000
      7       3.1644      0.00000
      8       3.8795      0.00000

 k-point    17 :      -0.1667    0.0833    0.0000
  band No.  band energies     occupation 
      1      -7.5944      2.00000
      2      -3.2787      2.00000
      3      -0.1245      2.00000
      4       0.3023      1.97548
      5       0.7904      0.00000
      6       2.8270      0.00000
      7       2.8486      0.00000
      8       3.3823      0.00000

 k-point    18 :      -0.0833    0.0833    0.0000
  band No.  band energies     occupation 
      1      -7.7509      2.00000
      2      -2.7832      2.00000
      3       0.1633      1.99990
      4       0.4246      0.75326
      5       0.6942      0.00003
      6       2.6166      0.00000
      7       2.6309      0.00000
      8       2.9595      0.00000

 k-point    19 :       0.1667    0.1667    0.0000
  band No.  band energies     occupation 
      1      -7.6325      2.00000
      2      -3.1459      2.00000
      3      -0.0084      2.00000
      4      -0.0084      2.00000
      5       1.2487      0.00000
      6       2.0938      0.00000
      7       3.2902      0.00000
      8       3.2902      0.00000

 k-point    20 :       0.2500    0.1667    0.0000
  band No.  band energies     occupation 
      1      -7.4754      2.00000
      2      -3.5588      2.00000
      3      -0.2312      2.00000
      4      -0.1771      2.00000
      5       1.4173      0.00000
      6       2.1070      0.00000
      7       3.5972      0.00000
      8       3.6578      0.00000

 k-point    21 :       0.3333    0.1667    0.0000
  band No.  band energies     occupation 
      1      -7.2490      2.00000
      2      -4.0568      2.00000
      3      -0.5105      2.00000
      4      -0.3003      2.00000
      5       1.4126      0.00000
      6       2.4190      0.00000
      7       3.8201      0.00000
      8       4.0296      0.00000

 k-point    22 :       0.4167    0.1667    0.0000
  band No.  band energies     occupation 
      1      -6.9855      2.00000
      2      -4.5385      2.00000
      3      -0.7666      2.00000
      4      -0.3606      2.00000
      5       1.3327      0.00000
      6       2.8375      0.00000
      7       3.9098      0.00000
      8       4.3737      0.00000

 k-point    23 :       0.5000    0.1667    0.0000
  band No.  band energies     occupation 
      1      -6.7646      2.00000
      2      -4.8855      2.00000
      3      -0.9465      2.00000
      4      -0.3523      2.00000
      5       1.2580      0.00000
      6       3.1645      0.00000
      7       3.8782      0.00000
      8       4.7552      0.00000

 k-point    24 :      -0.4167    0.1667    0.0000
  band No.  band energies     occupation 
      1      -6.7291      2.00000
      2      -4.9372      2.00000
      3      -1.0250      2.00000
      4      -0.2775      2.00000
      5       1.2159      0.00000
      6       3.3518      0.00000
      7       3.7576      0.00000
      8       4.9028      0.00000

 k-point    25 :      -0.3333    0.1667    0.0000
  band No.  band energies     occupation 
      1      -6.9115      2.00000
      2      -4.6605      2.00000
      3      -0.9884      2.00000
      4      -0.1457      2.00000
      5       1.2016      0.00000
      6       3.4163      0.00000
      7       3.5622      0.00000
      8       4.5125      0.00000

 k-point    26 :      -0.2500    0.1667    0.0000
  band No.  band energies     occupation 
      1      -7.1736      2.00000
      2      -4.2094      2.00000
      3      -0.8267      2.00000
      4       0.0232      2.00000
      5       1.1761      0.00000
      6       3.2819      0.00000
      7       3.3008      0.00000
      8       4.0622      0.00000

 k-point    27 :      -0.1667    0.1667    0.0000
  band No.  band energies     occupation 
      1      -7.4152      2.00000
      2      -3.7173      2.00000
      3      -0.5348      2.00000
      4       0.1923      1.99970
      5       1.0574      0.00000
      6       2.9960      0.00000
      7       3.0222      0.00000
      8       3.7597      0.00000

 k-point    28 :       0.2500    0.2500    0.0000
  band No.  band energies     occupation 
      1      -7.3428      2.00000
      2      -3.8433      2.00000
      3      -0.3528      2.00000
      4      -0.3528      2.00000
      5       1.6856      0.00000
      6       1.8201      0.00000
      7       3.9688      0.00000
      8       3.9688      0.00000

 k-point    29 :       0.3333    0.2500    0.0000
  band No.  band energies     occupation 
      1      -7.1359      2.00000
      2      -4.2439      2.00000
      3      -0.5741      2.00000
      4      -0.4832      2.00000
      5       1.7324      0.00000
      6       1.9286      0.00000
      7       4.2658      0.00000
      8       4.2666      0.00000

 k-point    30 :       0.4167    0.2500    0.0000
  band No.  band energies     occupation 
      1      -6.8765      2.00000
      2      -4.6747      2.00000
      3      -0.8672      2.00000
      4      -0.5490      2.00000
      5       1.6692      0.00000
      6       2.3714      0.00000
      7       4.3942      0.00000
      8       4.4115      0.00000

 k-point    31 :       0.5000    0.2500    0.0000
  band No.  band energies     occupation 
      1      -6.6225      2.00000
      2      -5.0394      2.00000
      3      -1.1236      2.00000
      4      -0.5429      2.00000
      5       1.6055      0.00000
[...]
      8       4.8991      0.00000

 k-point    37 :       0.5000    0.3333    0.0000
  band No.  band energies     occupation 
      1      -6.4241      2.00000
      2      -5.2789      2.00000
      3      -1.0923      2.00000
      4      -0.7078      2.00000
      5       1.6789      0.00000
      6       2.4065      0.00000
      7       4.7885      0.00000
      8       4.9243      0.00000

 k-point    38 :      -0.4167    0.3333    0.0000
  band No.  band energies     occupation 
      1      -6.2604      2.00000
      2      -5.4682      2.00000
      3      -1.3121      2.00000
      4      -0.6396      2.00000
      5       1.6652      0.00000
      6       3.0561      0.00000
      7       4.6644      0.00000
      8       4.7479      0.00000

 k-point    39 :      -0.3333    0.3333    0.0000
  band No.  band energies     occupation 
      1      -6.3978      2.00000
      2      -5.3075      2.00000
      3      -1.3931      2.00000
      4      -0.5068      2.00000
      5       1.6438      0.00000
      6       3.6040      0.00000
      7       4.4102      0.00000
      8       4.4364      0.00000

 k-point    40 :       0.4167    0.4167    0.0000
  band No.  band energies     occupation 
      1      -6.4569      2.00000
      2      -5.2445      2.00000
      3      -0.7960      2.00000
      4      -0.7960      2.00000
      5       1.5778      0.00000
      6       1.7715      0.00000
      7       5.2416      0.00000
      8       5.2416      0.00000

 k-point    41 :       0.5000    0.4167    0.0000
  band No.  band energies     occupation 
      1      -6.1743      2.00000
      2      -5.5743      2.00000
      3      -0.9437      2.00000
      4      -0.8165      2.00000
      5       1.6472      0.00000
      6       1.8770      0.00000
      7       5.2797      0.00000
      8       5.3334      0.00000

 k-point    42 :      -0.4167    0.4167    0.0000
  band No.  band energies     occupation 
      1      -6.0157      2.00000
      2      -5.7384      2.00000
      3      -1.1691      2.00000
      4      -0.7622      2.00000
      5       1.6610      0.00000
      6       2.4106      0.00000
      7       5.0465      0.00000
      8       5.1496      0.00000

 k-point    43 :       0.5000    0.5000    0.0000
  band No.  band energies     occupation 
      1      -5.8841      2.00000
      2      -5.8841      2.00000
      3      -0.8542      2.00000
      4      -0.8542      2.00000
      5       1.6392      0.00000
      6       1.6392      0.00000
      7       5.4890      0.00000
      8       5.4890      0.00000

 k-point    44 :       0.2500    0.1667    0.0833
  band No.  band energies     occupation 
      1      -7.5776      2.00000
      2      -3.3103      2.00000
      3      -0.1857      2.00000
      4       0.1148      1.99999
      5       1.1172      0.00000
      6       2.3706      0.00000
      7       3.2078      0.00000
      8       3.4454      0.00000

 k-point    45 :       0.3333    0.1667    0.0833
  band No.  band energies     occupation 
      1      -7.3731      2.00000
      2      -3.8092      2.00000
      3      -0.4910      2.00000
      4      -0.0131      2.00000
      5       1.2030      0.00000
      6       2.6017      0.00000
      7       3.4807      0.00000
      8       3.8235      0.00000

 k-point    46 :       0.4167    0.1667    0.0833
  band No.  band energies     occupation 
      1      -7.1173      2.00000
      2      -4.3224      2.00000
      3      -0.7183      2.00000
      4      -0.1528      2.00000
      5       1.1795      0.00000
      6       2.9409      0.00000
      7       3.6624      0.00000
      8       4.2380      0.00000

 k-point    47 :       0.5000    0.1667    0.0833
  band No.  band energies     occupation 
      1      -6.8690      2.00000
      2      -4.7421      2.00000
      3      -0.8562      2.00000
      4      -0.2523      2.00000
      5       1.1329      0.00000
      6       3.1880      0.00000
      7       3.7156      0.00000
      8       4.7311      0.00000

 k-point    48 :      -0.4167    0.1667    0.0833
  band No.  band energies     occupation 
      1      -6.7536      2.00000
      2      -4.9174      2.00000
      3      -0.9023      2.00000
      4      -0.2877      2.00000
      5       1.1129      0.00000
      6       3.2696      0.00000
      7       3.7214      0.00000
      8       5.0144      0.00000

 k-point    49 :       0.3333    0.2500    0.0833
  band No.  band energies     occupation 
      1      -7.2942      2.00000
      2      -3.9519      2.00000
      3      -0.5248      2.00000
      4      -0.2744      2.00000
      5       1.6114      0.00000
      6       2.1103      0.00000
      7       3.9154      0.00000
      8       3.9489      0.00000

 k-point    50 :       0.4167    0.2500    0.0833
  band No.  band energies     occupation 
      1      -7.0507      2.00000
      2      -4.4026      2.00000
      3      -0.8072      2.00000
      4      -0.3931      2.00000
      5       1.6633      0.00000
      6       2.4206      0.00000
      7       4.0785      0.00000
      8       4.2187      0.00000

 k-point    51 :       0.5000    0.2500    0.0833
  band No.  band energies     occupation 
      1      -6.7859      2.00000
      2      -4.8212      2.00000
      3      -1.0305      2.00000
      4      -0.4743      2.00000
      5       1.6238      0.00000
      6       2.8748      0.00000
      7       4.1265      0.00000
      8       4.4411      0.00000

 k-point    52 :      -0.4167    0.2500    0.0833
  band No.  band energies     occupation 
      1      -6.6048      2.00000
      2      -5.0754      2.00000
      3      -1.1659      2.00000
      4      -0.4818      2.00000
      5       1.5850      0.00000
      6       3.2034      0.00000
      7       4.1275      0.00000
      8       4.6361      0.00000

 k-point    53 :      -0.3333    0.2500    0.0833
  band No.  band energies     occupation 
      1      -6.6555      2.00000
      2      -5.0064      2.00000
      3      -1.1915      2.00000
      4      -0.4127      2.00000
      5       1.5661      0.00000
      6       3.2871      0.00000
      7       4.0507      0.00000
      8       4.5835      0.00000

 k-point    54 :      -0.2500    0.2500    0.0833
  band No.  band energies     occupation 
      1      -6.8877      2.00000
      2      -4.6697      2.00000
      3      -1.0915      2.00000
      4      -0.2826      2.00000
      5       1.5428      0.00000
      6       3.1025      0.00000
      7       3.9620      0.00000
      8       4.2420      0.00000

 k-point    55 :      -0.1667    0.2500    0.0833
  band No.  band energies     occupation 
      1      -7.1513      2.00000
      2      -4.2352      2.00000
      3      -0.8564      2.00000
      4      -0.1272      2.00000
      5       1.4427      0.00000
      6       2.7848      0.00000
      7       3.7758      0.00000
      8       3.9994      0.00000

 k-point    56 :       0.4167    0.3333    0.0833
  band No.  band energies     occupation 
      1      -6.9088      2.00000
      2      -4.6183      2.00000
      3      -0.7791      2.00000
      4      -0.6015      2.00000
      5       1.9004      0.00000
      6       1.9242      0.00000
      7       4.3967      0.00000
      8       4.6210      0.00000

 k-point    57 :       0.5000    0.3333    0.0833
  band No.  band energies     occupation 
      1      -6.6395      2.00000
      2      -5.0039      2.00000
      3      -1.0255      2.00000
      4      -0.6872      2.00000
      5       1.8691      0.00000
      6       2.3871      0.00000
      7       4.3788      0.00000
      8       4.7932      0.00000

 k-point    58 :      -0.4167    0.3333    0.0833
  band No.  band energies     occupation 
      1      -6.4065      2.00000
      2      -5.2987      2.00000
      3      -1.2397      2.00000
      4      -0.6871      2.00000
      5       1.8382      0.00000
      6       2.9761      0.00000
      7       4.3557      0.00000
      8       4.7084      0.00000

 k-point    59 :      -0.3333    0.3333    0.0833
  band No.  band energies     occupation 
      1      -6.3976      2.00000
      2      -5.3082      2.00000
      3      -1.3467      2.00000
      4      -0.6037      2.00000
      5       1.8161      0.00000
      6       3.4114      0.00000
      7       4.3813      0.00000
      8       4.4111      0.00000

 k-point    60 :      -0.2500    0.3333    0.0833
  band No.  band energies     occupation 
      1      -6.6207      2.00000
      2      -5.0310      2.00000
      3      -1.3037      2.00000
      4      -0.4563      2.00000
      5       1.7508      0.00000
      6       3.3864      0.00000
      7       4.1804      0.00000
      8       4.3057      0.00000

 k-point    61 :       0.5000    0.4167    0.0833
  band No.  band energies     occupation 
      1      -6.4327      2.00000
      2      -5.2693      2.00000
      3      -0.9199      2.00000
      4      -0.8280      2.00000
      5       1.8452      0.00000
      6       1.9339      0.00000
      7       4.8784      0.00000
      8       5.1608      0.00000

 k-point    62 :      -0.4167    0.4167    0.0833
  band No.  band energies     occupation 
      1      -6.1626      2.00000
      2      -5.5773      2.00000
      3      -1.1330      2.00000
      4      -0.8478      2.00000
      5       1.8812      0.00000
      6       2.4084      0.00000
      7       4.7808      0.00000
      8       5.0516      0.00000

 k-point    63 :      -0.3333    0.4167    0.0833
  band No.  band energies     occupation 
      1      -6.1443      2.00000
      2      -5.5926      2.00000
      3      -1.3134      2.00000
      4      -0.7604      2.00000
      5       1.8785      0.00000
      6       3.0502      0.00000
      7       4.6068      0.00000
      8       4.6652      0.00000

 k-point    64 :      -0.4167    0.5000    0.0833
  band No.  band energies     occupation 
      1      -5.8805      2.00000
      2      -5.8805      2.00000
      3      -0.9365      2.00000
      4      -0.9365      2.00000
      5       1.8679      0.00000
      6       1.8679      0.00000
      7       5.2535      0.00000
      8       5.2535      0.00000

 k-point    65 :       0.5000    0.3333    0.1667
  band No.  band energies     occupation 
      1      -6.7963      2.00000
      2      -4.7887      2.00000
      3      -1.0713      2.00000
      4      -0.5316      2.00000
      5       1.9218      0.00000
      6       2.6009      0.00000
      7       4.1024      0.00000
      8       4.4991      0.00000

 k-point    66 :      -0.4167    0.3333    0.1667
  band No.  band energies     occupation 
      1      -6.5330      2.00000
      2      -5.1416      2.00000
      3      -1.2343      2.00000
      4      -0.6586      2.00000
      5       2.0130      0.00000
      6       2.9777      0.00000
      7       4.1449      0.00000
      8       4.5906      0.00000

 k-point    67 :      -0.3333    0.3333    0.1667
  band No.  band energies     occupation 
      1      -6.3974      2.00000
      2      -5.3089      2.00000
      3      -1.2886      2.00000
      4      -0.7078      2.00000
      5       2.0251      0.00000
      6       3.1761      0.00000
      7       4.3677      0.00000
      8       4.3903      0.00000

 k-point    68 :      -0.4167    0.4167    0.1667
  band No.  band energies     occupation 
      1      -6.3645      2.00000
      2      -5.3419      2.00000
      3      -1.1491      2.00000
      4      -0.8662      2.00000
      5       2.2568      0.00000
      6       2.4816      0.00000
      7       4.2937      0.00000
      8       4.8835      0.00000

 k-point    69 :      -0.3333    0.4167    0.1667
  band No.  band energies     occupation 
      1      -6.1506      2.00000
      2      -5.5807      2.00000
      3      -1.2540      2.00000
      4      -0.9289      2.00000
      5       2.3202      0.00000
      6       2.9548      0.00000
      7       4.2617      0.00000
      8       4.5510      0.00000

 k-point    70 :      -0.2500    0.4167    0.1667
  band No.  band energies     occupation 
      1      -6.2638      2.00000
      2      -5.4547      2.00000
      3      -1.3053      2.00000
      4      -0.8375      2.00000
      5       2.2593      0.00000
      6       3.1471      0.00000
      7       4.1772      0.00000
      8       4.4747      0.00000

 k-point    71 :      -0.3333    0.5000    0.1667
  band No.  band energies     occupation 
      1      -5.8735      2.00000
      2      -5.8735      2.00000
      3      -1.0793      2.00000
      4      -1.0793      2.00000
      5       2.4009      0.00000
      6       2.4009      0.00000
      7       4.6735      0.00000
      8       4.6735      0.00000

 k-point    72 :      -0.2500    0.5000    0.2500
  band No.  band energies     occupation 
      1      -5.8699      2.00000
      2      -5.8699      2.00000
      3      -1.1426      2.00000
      4      -1.1426      2.00000
      5       2.7744      0.00000
      6       2.7744      0.00000
      7       4.2675      0.00000
      8       4.2675      0.00000


--------------------------------------------------------------------------------------------------------


 soft charge-density along one line, spin component           1
         0         1         2         3         4         5         6         7         8         9
 total charge-density along one line
 
 pseudopotential strength for first ion, spin component:           1
 19.075   0.004   0.000   0.000   0.000  -0.000  -0.000  -0.000
  0.004   0.006  -0.000  -0.000  -0.000   0.000   0.000   0.000
  0.000  -0.000   4.257  -0.000  -0.000  -0.001   0.000   0.000
  0.000  -0.000  -0.000   4.257  -0.000   0.000  -0.001   0.000
  0.000  -0.000  -0.000  -0.000   4.257   0.000   0.000  -0.001
 -0.000   0.000  -0.001   0.000   0.000   0.004  -0.000  -0.000
 -0.000   0.000   0.000  -0.001   0.000  -0.000   0.004  -0.000
 -0.000   0.000   0.000   0.000  -0.001  -0.000  -0.000   0.004
 total augmentation occupancy for first ion, spin component:           1
  1.816  -0.004   0.000   0.000   0.000   0.000   0.000   0.000
 -0.004   0.150  -0.000   0.000  -0.000  -0.000  -0.000   0.000
  0.000   0.000   0.678   0.000   0.000  -0.173   0.000   0.000
  0.000   0.000   0.000   0.678  -0.000   0.000  -0.173   0.000
  0.000   0.000   0.000  -0.000   0.678   0.000   0.000  -0.173
 -0.000  -0.000  -0.173   0.000   0.000   0.058  -0.000  -0.000
  0.000  -0.000   0.000  -0.173   0.000   0.000   0.058   0.000
  0.000  -0.000   0.000   0.000  -0.173  -0.000  -0.000   0.058


------------------------ aborting loop because EDIFF is reached ----------------------------------------


    CHARGE:  cpu time    0.04: real time    0.04
    FORLOC:  cpu time    0.00: real time    0.00
    FORNL :  cpu time    0.06: real time    0.06
    STRESS:  cpu time    0.53: real time    0.54
    FORCOR:  cpu time    0.03: real time    0.03
    FORHAR:  cpu time    0.01: real time    0.01
    MIXING:  cpu time    0.00: real time    0.00
    OFIELD:  cpu time    0.00: real time    0.00

  FORCE on cell =-STRESS in cart. coord.  units (eV):
  Direction    XX          YY          ZZ          XY          YZ          ZX
  --------------------------------------------------------------------------------------
  Alpha Z     1.61962     1.61962     1.61962
  Ewald     -59.71248   -59.71248   -59.71248     0.00000     0.00000     0.00000
  Hartree     8.47225     8.47225     8.47225     0.00000     0.00000     0.00000
  E(xc)     -22.50097   -22.50097   -22.50097    -0.00000    -0.00000    -0.00000
  Local     -42.70086   -42.70086   -42.70086     0.00001     0.00001     0.00001
  n-local    76.61638    78.07509    72.25665     1.40440    -0.55889     0.01932
  augment   -12.87516   -12.87516   -12.87516    -0.00001    -0.00001    -0.00001
  Kinetic    48.30240    49.73847    40.24986     3.31516    -1.32390     0.81967
  Fock        0.00000     0.00000     0.00000     0.00000     0.00000     0.00000
  -------------------------------------------------------------------------------------
  Total      -5.95132    -5.95132    -5.95132     0.00000     0.00000    -0.00000
  in kB    -114.68911  -114.68911  -114.68911     0.00000     0.00000    -0.00000
  external pressure =     -114.69 kB  Pullay stress =        0.00 kB


 VOLUME and BASIS-vectors are now :
 -----------------------------------------------------------------------------
  energy-cutoff  :      600.00
  volume of cell :       83.14
      direct lattice vectors                 reciprocal lattice vectors
     0.000000000  3.464101615  3.464101615    -0.144337567  0.144337567  0.144337567
     3.464101615  0.000000000  3.464101615     0.144337567 -0.144337567  0.144337567
     3.464101615  3.464101615  0.000000000     0.144337567  0.144337567 -0.144337567

  length of vectors
     4.898979486  4.898979486  4.898979486     0.250000000  0.250000000  0.250000000


 FORCES acting on ions
    electron-ion (+dipol)            ewald-force                    non-local-force                 convergence-correction
 -----------------------------------------------------------------------------------------------
   0.120E-06 0.120E-06 0.120E-06   0.124E-14 0.191E-14 -.185E-15   -.104E-16 -.156E-16 -.208E-16   0.212E-12 0.213E-12 0.221E-12
   -.120E-06 -.120E-06 -.118E-06   -.125E-14 -.202E-14 -.230E-16   0.139E-16 0.173E-16 0.208E-16   -.225E-12 -.220E-12 -.221E-12
 -----------------------------------------------------------------------------------------------
   -.512E-09 -.512E-09 0.158E-08   -.950E-17 -.109E-15 -.208E-15   0.347E-17 0.173E-17 0.000E+00   -.139E-13 -.741E-14 0.133E-15
 
 
 POSITION                                       TOTAL-FORCE (eV/Angst)
 -----------------------------------------------------------------------------------
      0.00000      0.00000      0.00000         0.000000      0.000000     -0.000000
      1.73205      1.73205      1.73205        -0.000000     -0.000000      0.000000
 -----------------------------------------------------------------------------------
    total drift:                               -0.000000     -0.000000      0.000000


--------------------------------------------------------------------------------------------------------



  FREE ENERGIE OF THE ION-ELECTRON SYSTEM (eV)
  ---------------------------------------------------
  free  energy   TOTEN  =        -7.76579655 eV

  energy  without entropy=       -7.76498849  energy(sigma->0) =       -7.76539252
 


--------------------------------------------------------------------------------------------------------


    POTLOK:  cpu time    0.03: real time    0.03


--------------------------------------------------------------------------------------------------------


 writing wavefunctions
     LOOP+:  cpu time   13.22: real time   13.60
    4ORBIT:  cpu time    0.00: real time    0.00

 total amount of memory used by VASP on root node    55216. kBytes
========================================================================

   base      :      30000. kBytes
   nonl-proj :      12992. kBytes
   fftplans  :       1986. kBytes
   grid      :       3744. kBytes
   one-center:          6. kBytes
   wavefun   :       6488. kBytes
 
  
  
 General timing and accounting informations for this job:
 ========================================================
  
                  Total CPU time used (sec):       13.780
                            User time (sec):       13.348
                          System time (sec):        0.432
                         Elapsed time (sec):       14.277
  
                   Maximum memory used (kb):       66664.
                   Average memory used (kb):           0.
  
                          Minor page faults:        12096
                          Major page faults:            5
                 Voluntary context switches:          652
