 vasp.5.3.5 31Mar14 (build Jun 01 2017 17:55:53) complex                        
  
 executed on             LinuxIFC date 2020.11.10  15:16:53
 running on    4 total cores
 distrk:  each k-point on    4 cores,    1 groups
 distr:  one band on NCORES_PER_BAND=   1 cores,    4 groups


--------------------------------------------------------------------------------------------------------


 INCAR:
 POTCAR:   PAW_PBE Si 05Jan2001                   
 POTCAR:   PAW_PBE Si 05Jan2001                   
   VRHFIN =Si: s2p2                                                             
   LEXCH  = PE                                                                  
   EATOM  =   103.0669 eV,    7.5752 Ry                                         
                                                                                
   TITEL  = PAW_PBE Si 05Jan2001                                                
   LULTRA =        F    use ultrasoft PP ?                                      
   IUNSCR =        1    unscreen: 0-lin 1-nonlin 2-no                           
   RPACOR =    1.500    partial core radius                                     
   POMASS =   28.085; ZVAL   =    4.000    mass and valenz                      
   RCORE  =    1.900    outmost cutoff radius                                   
   RWIGS  =    2.480; RWIGS  =    1.312    wigner-seitz radius (au A)           
   ENMAX  =  245.345; ENMIN  =  184.009 eV                                      
   ICORE  =        2    local potential                                         
   LCOR   =        T    correct aug charges                                     
   LPAW   =        T    paw PP                                                  
   EAUG   =  322.069                                                            
   DEXC   =    -.007                                                            
   RMAX   =    2.944    core radius for proj-oper                               
   RAUG   =    1.300    factor for augmentation sphere                          
   RDEP   =    1.993    radius for radial grids                                 
   QCUT   =   -4.246; QGAM   =    8.493    optimization parameters              
                                                                                
   Description                                                                  
     l     E      TYP  RCUT    TYP  RCUT                                        
     0   .000     23  1.900                                                     
     0   .000     23  1.900                                                     
     1   .000     23  1.900                                                     
     1   .000     23  1.900                                                     
     2   .000      7  1.900                                                     
  local pseudopotential read in
  partial core-charges read in
  atomic valenz-charges read in
  non local Contribution for L=           0  read in
    real space projection operators read in
  non local Contribution for L=           0  read in
    real space projection operators read in
  non local Contribution for L=           1  read in
    real space projection operators read in
  non local Contribution for L=           1  read in
    real space projection operators read in
    PAW grid and wavefunctions read in
 
   number of l-projection  operators is LMAX  =           4
   number of lm-projection operators is LMMAX =           8
 
 PAW_PBE Si 05Jan2001                   :
 energy of atom  1       EATOM= -103.0669
 kinetic energy error for atom=    0.0003 (will be added to EATOM!!)
 
 
 POSCAR: Si
  positions in direct lattice
  velocities in cartesian coordinates
  No initial velocities read in
 exchange correlation table for  LEXCH =        8
   RHO(1)=    0.500       N(1)  =     2000
   RHO(2)=  100.500       N(2)  =     4000
 


--------------------------------------------------------------------------------------------------------


 ion  position               nearest neighbor table
   1  0.000  0.000  0.000-   2 2.00   2 2.00   2 2.00   2 2.00
   2  0.250  0.250  0.250-   1 2.00   1 2.00   1 2.00   1 2.00
 
  LATTYP: Found a face centered cubic cell.
 ALAT       =     4.6188021535
  
  Lattice vectors:
  
 A1 = (   0.0000000000,   2.3094010768,   2.3094010768)
 A2 = (   2.3094010768,   0.0000000000,   2.3094010768)
 A3 = (   2.3094010768,   2.3094010768,   0.0000000000)


Analysis of symmetry for initial positions (statically):
=====================================================================
 Subroutine PRICEL returns:
 Original cell was already a primitive cell.
 

 Routine SETGRP: Setting up the symmetry group for a 
 face centered cubic supercell.


 Subroutine GETGRP returns: Found 48 space group operations
 (whereof 24 operations were pure point group operations)
 out of a pool of 48 trial point group operations.


The static configuration has the point symmetry T_d .
 The point group associated with its full space group is O_h .


Analysis of symmetry for dynamics (positions and initial velocities):
=====================================================================
 Subroutine PRICEL returns:
 Original cell was already a primitive cell.
 

 Routine SETGRP: Setting up the symmetry group for a 
 face centered cubic supercell.


 Subroutine GETGRP returns: Found 48 space group operations
 (whereof 24 operations were pure point group operations)
 out of a pool of 48 trial point group operations.


The dynamic configuration has the point symmetry T_d .
 The point group associated with its full space group is O_h .


Analysis of constrained symmetry for selective dynamics:
=====================================================================
 Subroutine PRICEL returns:
 Original cell was already a primitive cell.
 

 Routine SETGRP: Setting up the symmetry group for a 
 face centered cubic supercell.


 Subroutine GETGRP returns: Found 48 space group operations
 (whereof 24 operations were pure point group operations)
 out of a pool of 48 trial point group operations.


The constrained configuration has the point symmetry T_d .
 The point group associated with its full space group is O_h .
 
 
 KPOINTS: Gamma centered Monkhorst-Pack           

Automatic generation of k-mesh.
Space group operators:
 irot       det(A)        alpha          n_x          n_y          n_z        tau_x        tau_y        tau_z
    1     1.000000     0.000000     1.000000     0.000000     0.000000     0.000000     0.000000     0.000000
    2     1.000000   120.000000    -0.577350    -0.577350    -0.577350     0.000000     0.000000     0.000000
    3     1.000000   120.000000     0.577350     0.577350     0.577350     0.000000     0.000000     0.000000
    4    -1.000000    90.000000     0.000000     0.000000    -1.000000     0.000000     0.000000     0.000000
    5    -1.000000   180.000000     0.000000     0.707107     0.707107     0.000000     0.000000     0.000000
    6    -1.000000    90.000000     0.000000     1.000000     0.000000     0.000000     0.000000     0.000000
    7     1.000000   180.000000     0.000000     0.000000     1.000000     0.000000     0.000000     0.000000
    8     1.000000   120.000000    -0.577350     0.577350     0.577350     0.000000     0.000000     0.000000
    9     1.000000   120.000000    -0.577350     0.577350    -0.577350     0.000000     0.000000     0.000000
   10    -1.000000    90.000000     0.000000     0.000000     1.000000     0.000000     0.000000     0.000000
   11    -1.000000    90.000000    -1.000000     0.000000     0.000000     0.000000     0.000000     0.000000
   12    -1.000000   180.000000     0.707107     0.000000     0.707107     0.000000     0.000000     0.000000
   13     1.000000   120.000000     0.577350    -0.577350     0.577350     0.000000     0.000000     0.000000
   14     1.000000   120.000000    -0.577350    -0.577350     0.577350     0.000000     0.000000     0.000000
   15     1.000000   180.000000     1.000000     0.000000     0.000000     0.000000     0.000000     0.000000
   16    -1.000000    90.000000     0.000000    -1.000000     0.000000     0.000000     0.000000     0.000000
   17    -1.000000   180.000000     0.707107     0.707107     0.000000     0.000000     0.000000     0.000000
   18    -1.000000    90.000000     1.000000     0.000000     0.000000     0.000000     0.000000     0.000000
   19     1.000000   120.000000     0.577350    -0.577350    -0.577350     0.000000     0.000000     0.000000
   20     1.000000   180.000000     0.000000     1.000000     0.000000     0.000000     0.000000     0.000000
   21     1.000000   120.000000     0.577350     0.577350    -0.577350     0.000000     0.000000     0.000000
   22    -1.000000   180.000000     0.000000    -0.707107     0.707107     0.000000     0.000000     0.000000
   23    -1.000000   180.000000     0.707107    -0.707107     0.000000     0.000000     0.000000     0.000000
   24    -1.000000   180.000000     0.707107     0.000000    -0.707107     0.000000     0.000000     0.000000
   25    -1.000000     0.000000     1.000000     0.000000     0.000000     0.250000     0.250000     0.250000
   26    -1.000000   120.000000    -0.577350    -0.577350    -0.577350     0.250000     0.250000     0.250000
   27    -1.000000   120.000000     0.577350     0.577350     0.577350     0.250000     0.250000     0.250000
   28     1.000000    90.000000     0.000000     0.000000    -1.000000     0.250000     0.250000     0.250000
   29     1.000000   180.000000     0.000000     0.707107     0.707107     0.250000     0.250000     0.250000
   30     1.000000    90.000000     0.000000     1.000000     0.000000     0.250000     0.250000     0.250000
   31    -1.000000   180.000000     0.000000     0.000000     1.000000     0.250000     0.250000     0.250000
   32    -1.000000   120.000000    -0.577350     0.577350     0.577350     0.250000     0.250000     0.250000
   33    -1.000000   120.000000    -0.577350     0.577350    -0.577350     0.250000     0.250000     0.250000
   34     1.000000    90.000000     0.000000     0.000000     1.000000     0.250000     0.250000     0.250000
   35     1.000000    90.000000    -1.000000     0.000000     0.000000     0.250000     0.250000     0.250000
   36     1.000000   180.000000     0.707107     0.000000     0.707107     0.250000     0.250000     0.250000
   37    -1.000000   120.000000     0.577350    -0.577350     0.577350     0.250000     0.250000     0.250000
   38    -1.000000   120.000000    -0.577350    -0.577350     0.577350     0.250000     0.250000     0.250000
   39    -1.000000   180.000000     1.000000     0.000000     0.000000     0.250000     0.250000     0.250000
   40     1.000000    90.000000     0.000000    -1.000000     0.000000     0.250000     0.250000     0.250000
   41     1.000000   180.000000     0.707107     0.707107     0.000000     0.250000     0.250000     0.250000
   42     1.000000    90.000000     1.000000     0.000000     0.000000     0.250000     0.250000     0.250000
   43    -1.000000   120.000000     0.577350    -0.577350    -0.577350     0.250000     0.250000     0.250000
   44    -1.000000   180.000000     0.000000     1.000000     0.000000     0.250000     0.250000     0.250000
   45    -1.000000   120.000000     0.577350     0.577350    -0.577350     0.250000     0.250000     0.250000
   46     1.000000   180.000000     0.000000    -0.707107     0.707107     0.250000     0.250000     0.250000
   47     1.000000   180.000000     0.707107    -0.707107     0.000000     0.250000     0.250000     0.250000
   48     1.000000   180.000000     0.707107     0.000000    -0.707107     0.250000     0.250000     0.250000
 
 Subroutine IBZKPT returns following result:
 ===========================================
 
 Found     72 irreducible k-points:
 
 Following reciprocal coordinates:
            Coordinates               Weight
  0.000000  0.000000  0.000000      1.000000
  0.083333  0.000000  0.000000      8.000000
  0.166667  0.000000  0.000000      8.000000
  0.250000  0.000000  0.000000      8.000000
  0.333333  0.000000  0.000000      8.000000
  0.416667  0.000000  0.000000      8.000000
  0.500000  0.000000  0.000000      4.000000
  0.083333  0.083333  0.000000      6.000000
  0.166667  0.083333  0.000000     24.000000
  0.250000  0.083333  0.000000     24.000000
  0.333333  0.083333  0.000000     24.000000
  0.416667  0.083333  0.000000     24.000000
  0.500000  0.083333  0.000000     24.000000
 -0.416667  0.083333  0.000000     24.000000
 -0.333333  0.083333  0.000000     24.000000
 -0.250000  0.083333  0.000000     24.000000
 -0.166667  0.083333  0.000000     24.000000
 -0.083333  0.083333  0.000000     12.000000
  0.166667  0.166667  0.000000      6.000000
  0.250000  0.166667  0.000000     24.000000
  0.333333  0.166667  0.000000     24.000000
  0.416667  0.166667  0.000000     24.000000
  0.500000  0.166667  0.000000     24.000000
 -0.416667  0.166667  0.000000     24.000000
 -0.333333  0.166667  0.000000     24.000000
 -0.250000  0.166667  0.000000     24.000000
 -0.166667  0.166667  0.000000     12.000000
  0.250000  0.250000  0.000000      6.000000
  0.333333  0.250000  0.000000     24.000000
  0.416667  0.250000  0.000000     24.000000
  0.500000  0.250000  0.000000     24.000000
 -0.416667  0.250000  0.000000     24.000000
 -0.333333  0.250000  0.000000     24.000000
 -0.250000  0.250000  0.000000     12.000000
  0.333333  0.333333  0.000000      6.000000
  0.416667  0.333333  0.000000     24.000000
  0.500000  0.333333  0.000000     24.000000
 -0.416667  0.333333  0.000000     24.000000
 -0.333333  0.333333  0.000000     12.000000
  0.416667  0.416667  0.000000      6.000000
  0.500000  0.416667  0.000000     24.000000
 -0.416667  0.416667  0.000000     12.000000
  0.500000  0.500000  0.000000      3.000000
  0.250000  0.166667  0.083333     24.000000
  0.333333  0.166667  0.083333     48.000000
  0.416667  0.166667  0.083333     48.000000
  0.500000  0.166667  0.083333     48.000000
 -0.416667  0.166667  0.083333     24.000000
  0.333333  0.250000  0.083333     24.000000
  0.416667  0.250000  0.083333     48.000000
  0.500000  0.250000  0.083333     48.000000
 -0.416667  0.250000  0.083333     48.000000
 -0.333333  0.250000  0.083333     48.000000
 -0.250000  0.250000  0.083333     48.000000
 -0.166667  0.250000  0.083333     24.000000
  0.416667  0.333333  0.083333     24.000000
  0.500000  0.333333  0.083333     48.000000
 -0.416667  0.333333  0.083333     48.000000
 -0.333333  0.333333  0.083333     48.000000
 -0.250000  0.333333  0.083333     24.000000
  0.500000  0.416667  0.083333     24.000000
 -0.416667  0.416667  0.083333     48.000000
 -0.333333  0.416667  0.083333     24.000000
 -0.416667  0.500000  0.083333     12.000000
  0.500000  0.333333  0.166667     24.000000
 -0.416667  0.333333  0.166667     48.000000
 -0.333333  0.333333  0.166667     24.000000
 -0.416667  0.416667  0.166667     24.000000
 -0.333333  0.416667  0.166667     48.000000
 -0.250000  0.416667  0.166667     24.000000
 -0.333333  0.500000  0.166667     12.000000
 -0.250000  0.500000  0.250000      6.000000
 
 Following cartesian coordinates:
            Coordinates               Weight
  0.000000  0.000000  0.000000      1.000000
 -0.083333  0.083333  0.083333      8.000000
 -0.166667  0.166667  0.166667      8.000000
 -0.250000  0.250000  0.250000      8.000000
 -0.333333  0.333333  0.333333      8.000000
 -0.416667  0.416667  0.416667      8.000000
 -0.500000  0.500000  0.500000      4.000000
  0.000000  0.000000  0.166667      6.000000
 -0.083333  0.083333  0.250000     24.000000
 -0.166667  0.166667  0.333333     24.000000
 -0.250000  0.250000  0.416667     24.000000
 -0.333333  0.333333  0.500000     24.000000
 -0.416667  0.416667  0.583333     24.000000
  0.500000 -0.500000 -0.333333     24.000000
  0.416667 -0.416667 -0.250000     24.000000
  0.333333 -0.333333 -0.166667     24.000000
  0.250000 -0.250000 -0.083333     24.000000
  0.166667 -0.166667  0.000000     12.000000
  0.000000  0.000000  0.333333      6.000000
 -0.083333  0.083333  0.416667     24.000000
 -0.166667  0.166667  0.500000     24.000000
 -0.250000  0.250000  0.583333     24.000000
 -0.333333  0.333333  0.666667     24.000000
  0.583333 -0.583333 -0.250000     24.000000
  0.500000 -0.500000 -0.166667     24.000000
  0.416667 -0.416667 -0.083333     24.000000
  0.333333 -0.333333  0.000000     12.000000
  0.000000  0.000000  0.500000      6.000000
 -0.083333  0.083333  0.583333     24.000000
 -0.166667  0.166667  0.666667     24.000000
 -0.250000  0.250000  0.750000     24.000000
  0.666667 -0.666667 -0.166667     24.000000
  0.583333 -0.583333 -0.083333     24.000000
  0.500000 -0.500000  0.000000     12.000000
  0.000000  0.000000  0.666667      6.000000
 -0.083333  0.083333  0.750000     24.000000
 -0.166667  0.166667  0.833333     24.000000
  0.750000 -0.750000 -0.083333     24.000000
  0.666667 -0.666667  0.000000     12.000000
  0.000000  0.000000  0.833333      6.000000
 -0.083333  0.083333  0.916667     24.000000
  0.833333 -0.833333  0.000000     12.000000
  0.000000  0.000000  1.000000      3.000000
  0.000000  0.166667  0.333333     24.000000
 -0.083333  0.250000  0.416667     48.000000
 -0.166667  0.333333  0.500000     48.000000
 -0.250000  0.416667  0.583333     48.000000
  0.666667 -0.500000 -0.333333     24.000000
  0.000000  0.166667  0.500000     24.000000
 -0.083333  0.250000  0.583333     48.000000
 -0.166667  0.333333  0.666667     48.000000
  0.750000 -0.583333 -0.250000     48.000000
  0.666667 -0.500000 -0.166667     48.000000
  0.583333 -0.416667 -0.083333     48.000000
  0.500000 -0.333333  0.000000     24.000000
 -0.000000  0.166667  0.666667     24.000000
 -0.083333  0.250000  0.750000     48.000000
  0.833333 -0.666667 -0.166667     48.000000
  0.750000 -0.583333 -0.083333     48.000000
  0.666667 -0.500000  0.000000     24.000000
  0.000000  0.166667  0.833333     24.000000
  0.916667 -0.750000 -0.083333     48.000000
  0.833333 -0.666667  0.000000     24.000000
  1.000000 -0.833333  0.000000     12.000000
  0.000000  0.333333  0.666667     24.000000
  0.916667 -0.583333 -0.250000     48.000000
  0.833333 -0.500000 -0.166667     24.000000
  1.000000 -0.666667 -0.166667     24.000000
  0.916667 -0.583333 -0.083333     48.000000
  0.833333 -0.500000  0.000000     24.000000
  1.000000 -0.666667  0.000000     12.000000
  1.000000 -0.500000  0.000000      6.000000
 


--------------------------------------------------------------------------------------------------------




 Dimension of arrays:
   k-points           NKPTS =     72   k-points in BZ     NKDIM =     72   number of bands    NBANDS=      8
   number of dos      NEDOS =    301   number of ions     NIONS =      2
   non local maximal  LDIM  =      4   non local SUM 2l+1 LMDIM =      8
   total plane-waves  NPLWV =   8000
   max r-space proj   IRMAX =      1   max aug-charges    IRDMAX=  11057
   dimension x,y,z NGX =    20 NGY =   20 NGZ =   20
   dimension x,y,z NGXF=    40 NGYF=   40 NGZF=   40
   support grid    NGXF=    40 NGYF=   40 NGZF=   40
   ions per type =               2
 NGX,Y,Z   is equivalent  to a cutoff of  10.18, 10.18, 10.18 a.u.
 NGXF,Y,Z  is equivalent  to a cutoff of  20.36, 20.36, 20.36 a.u.


 I would recommend the setting:
   dimension x,y,z NGX =    20 NGY =   20 NGZ =   20
 SYSTEM =  Si
 POSCAR =  Si

 Startparameter for this run:
   NWRITE =      2    write-flag & timer
   PREC   = normal    normal or accurate (medium, high low for compatibility)
   ISTART =      0    job   : 0-new  1-cont  2-samecut
   ICHARG =      2    charge: 1-file 2-atom 10-const
   ISPIN  =      1    spin polarized calculation?
   LNONCOLLINEAR =      F non collinear calculations
   LSORBIT =      F    spin-orbit coupling
   INIWAV =      1    electr: 0-lowe 1-rand  2-diag
   LASPH  =      F    aspherical Exc in radial PAW
   METAGGA=      F    non-selfconsistent MetaGGA calc.

 Electronic Relaxation 1
   ENCUT  =  600.0 eV  44.10 Ry    6.64 a.u.   6.52  6.52  6.52*2*pi/ulx,y,z
   ENINI  =  600.0     initial cutoff
   ENAUG  = 1200.0 eV  augmentation charge cutoff
   NELM   =    500;   NELMIN=  2; NELMDL= -5     # of ELM steps 
   EDIFF  = 0.1E-09   stopping-criterion for ELM
   LREAL  =      F    real-space projection
   NLSPLINE    = F    spline interpolate recip. space projectors
   LCOMPAT=      F    compatible to vasp.4.4
   GGA_COMPAT  = T    GGA compatible to vasp.4.4-vasp.4.6
   LMAXPAW     = -100 max onsite density
   LMAXMIX     =    2 max onsite mixed and CHGCAR
   VOSKOWN=      0    Vosko Wilk Nusair interpolation
   ROPT   =    0.00000
 Ionic relaxation
   EDIFFG = 0.1E-08   stopping-criterion for IOM
   NSW    =      0    number of steps for IOM
   NBLOCK =      1;   KBLOCK =      1    inner block; outer block 
   IBRION =     -1    ionic relax: 0-MD 1-quasi-New 2-CG
   NFREE  =      0    steps in history (QN), initial steepest desc. (CG)
   ISIF   =      2    stress and relaxation
   IWAVPR =     10    prediction:  0-non 1-charg 2-wave 3-comb
   ISYM   =      2    0-nonsym 1-usesym 2-fastsym
   LCORR  =      T    Harris-Foulkes like correction to forces

   POTIM  = 0.5000    time-step for ionic-motion
   TEIN   =    0.0    initial temperature
   TEBEG  =    0.0;   TEEND  =   0.0 temperature during run
   SMASS  =  -3.00    Nose mass-parameter (am)
   estimated Nose-frequenzy (Omega)   =  0.10E-29 period in steps =****** mass=  -0.244E-27a.u.
   SCALEE = 1.0000    scale energy and forces
   NPACO  =    256;   APACO  = 16.0  distance and # of slots for P.C.
   PSTRESS=    0.0 pullay stress

  Mass of Ions in am
   POMASS =  28.09
  Ionic Valenz
   ZVAL   =   4.00
  Atomic Wigner-Seitz radii
   RWIGS  =  -1.00
  virtual crystal weights 
   VCA    =   1.00
   NELECT =       8.0000    total number of electrons
   NUPDOWN=      -1.0000    fix difference up-down

 DOS related values:
   EMIN   =  10.00;   EMAX   =-10.00  energy-range for DOS
   EFERMI =   0.00
   ISMEAR =    -1;   SIGMA  =   0.03  broadening in eV -4-tet -1-fermi 0-gaus

 Electronic relaxation 2 (details)
   IALGO  =     38    algorithm
   LDIAG  =      T    sub-space diagonalisation (order eigenvalues)
   LSUBROT=      F    optimize rotation matrix (better conditioning)
   TURBO    =      0    0=normal 1=particle mesh
   IRESTART =      0    0=no restart 2=restart with 2 vectors
   NREBOOT  =      0    no. of reboots
   NMIN     =      0    reboot dimension
   EREF     =   0.00    reference energy to select bands
   IMIX   =      4    mixing-type and parameters
     AMIX     =   0.40;   BMIX     =  1.00
     AMIX_MAG =   1.60;   BMIX_MAG =  1.00
     AMIN     =   0.10
     WC   =   100.;   INIMIX=   1;  MIXPRE=   1;  MAXMIX= -45

 Intra band minimization:
   WEIMIN = 0.0000     energy-eigenvalue tresh-hold
   EBREAK =  0.31E-11  absolut break condition
   DEPER  =   0.30     relativ break condition  

   TIME   =   0.40     timestep for ELM

  volume/ion in A,a.u.               =      12.32        83.12
  Fermi-wavevector in a.u.,A,eV,Ry     =   1.125284  2.126478 17.228568  1.266264
  Thomas-Fermi vector in A             =   2.261960
 
 Write flags
   LWAVE  =      T    write WAVECAR
   LCHARG =      T    write CHGCAR
   LVTOT  =      F    write LOCPOT, total local potential
   LVHAR  =      F    write LOCPOT, Hartree potential only
   LELF   =      F    write electronic localiz. function (ELF)
   LORBIT =      0    0 simple, 1 ext, 2 COOP (PROOUT)


 Dipole corrections
   LMONO  =      F    monopole corrections only (constant potential shift)
   LDIPOL =      F    correct potential (dipole corrections)
   IDIPOL =      0    1-x, 2-y, 3-z, 4-all directions 
   EPSILON=  1.0000000 bulk dielectric constant

 Exchange correlation treatment:
   GGA     =    PE    GGA type
   LEXCH   =     8    internal setting for exchange type
   VOSKOWN=      0    Vosko Wilk Nusair interpolation
   LHFCALC =     F    Hartree Fock is set to
   LHFONE  =     F    Hartree Fock one center treatment
   AEXX    =    0.0000 exact exchange contribution

 Linear response parameters
   LEPSILON=     F    determine dielectric tensor
   LRPA    =     F    only Hartree local field effects (RPA)
   LNABLA  =     F    use nabla operator in PAW spheres
   LVEL    =     F    velocity operator in full k-point grid
   LINTERFAST=   F  fast interpolation
   KINTER  =     0    interpolate to denser k-point grid
   CSHIFT  =0.1000    complex shift for real part using Kramers Kronig
   OMEGAMAX=  -1.0    maximum frequency
   DEG_THRESHOLD= 0.2000000E-02 threshold for treating states as degnerate
   RTIME   =    0.100 relaxation time in fs

 Orbital magnetization related:
   ORBITALMAG=     F  switch on orbital magnetization
   LCHIMAG   =     F  perturbation theory with respect to B field
   DQ        =  0.001000  dq finite difference perturbation B field



--------------------------------------------------------------------------------------------------------


 Static calculation
 charge density and potential will be updated during run
 non-spin polarized calculation
 Variant of blocked Davidson
 Davidson routine will perform the subspace rotation
 perform sub-space diagonalisation
    after iterative eigenvector-optimisation
 modified Broyden-mixing scheme, WC =      100.0
 initial mixing is a Kerker type mixing with AMIX =  0.4000 and BMIX =      1.0000
 Hartree-type preconditioning will be used
 using additional bands            4
 reciprocal scheme for non local part
 use partial core corrections
 calculate Harris-corrections to forces 
   (improved forces if not selfconsistent)
 use gradient corrections 
 use of overlap-Matrix (Vanderbilt PP)
 Fermi-smearing in eV        SIGMA  =   0.03


--------------------------------------------------------------------------------------------------------


  energy-cutoff  :      600.00
  volume of cell :       24.63
      direct lattice vectors                 reciprocal lattice vectors
     0.000000000  2.309401077  2.309401077    -0.216506351  0.216506351  0.216506351
     2.309401077  0.000000000  2.309401077     0.216506351 -0.216506351  0.216506351
     2.309401077  2.309401077  0.000000000     0.216506351  0.216506351 -0.216506351

  length of vectors
     3.265986324  3.265986324  3.265986324     0.375000000  0.375000000  0.375000000


 
 k-points in units of 2pi/SCALE and weight: Gamma centered Monkhorst-Pack           
   0.00000000  0.00000000  0.00000000       0.001
  -0.08333333  0.08333333  0.08333333       0.005
  -0.16666667  0.16666667  0.16666667       0.005
  -0.25000000  0.25000000  0.25000000       0.005
  -0.33333333  0.33333333  0.33333333       0.005
  -0.41666667  0.41666667  0.41666667       0.005
  -0.50000000  0.50000000  0.50000000       0.002
   0.00000000  0.00000000  0.16666667       0.003
  -0.08333333  0.08333333  0.25000000       0.014
  -0.16666667  0.16666667  0.33333333       0.014
  -0.25000000  0.25000000  0.41666667       0.014
  -0.33333333  0.33333333  0.50000000       0.014
  -0.41666667  0.41666667  0.58333333       0.014
   0.50000000 -0.50000000 -0.33333333       0.014
   0.41666667 -0.41666667 -0.25000000       0.014
   0.33333333 -0.33333333 -0.16666667       0.014
   0.25000000 -0.25000000 -0.08333333       0.014
   0.16666667 -0.16666667  0.00000000       0.007
   0.00000000  0.00000000  0.33333333       0.003
  -0.08333333  0.08333333  0.41666667       0.014
  -0.16666667  0.16666667  0.50000000       0.014
  -0.25000000  0.25000000  0.58333333       0.014
  -0.33333333  0.33333333  0.66666667       0.014
   0.58333333 -0.58333333 -0.25000000       0.014
   0.50000000 -0.50000000 -0.16666667       0.014
   0.41666667 -0.41666667 -0.08333333       0.014
   0.33333333 -0.33333333  0.00000000       0.007
   0.00000000  0.00000000  0.50000000       0.003
  -0.08333333  0.08333333  0.58333333       0.014
  -0.16666667  0.16666667  0.66666667       0.014
  -0.25000000  0.25000000  0.75000000       0.014
   0.66666667 -0.66666667 -0.16666667       0.014
   0.58333333 -0.58333333 -0.08333333       0.014
   0.50000000 -0.50000000  0.00000000       0.007
   0.00000000  0.00000000  0.66666667       0.003
  -0.08333333  0.08333333  0.75000000       0.014
  -0.16666667  0.16666667  0.83333333       0.014
   0.75000000 -0.75000000 -0.08333333       0.014
   0.66666667 -0.66666667  0.00000000       0.007
   0.00000000  0.00000000  0.83333333       0.003
  -0.08333333  0.08333333  0.91666667       0.014
   0.83333333 -0.83333333  0.00000000       0.007
   0.00000000  0.00000000  1.00000000       0.002
   0.00000000  0.16666667  0.33333333       0.014
  -0.08333333  0.25000000  0.41666667       0.028
  -0.16666667  0.33333333  0.50000000       0.028
  -0.25000000  0.41666667  0.58333333       0.028
   0.66666667 -0.50000000 -0.33333333       0.014
   0.00000000  0.16666667  0.50000000       0.014
  -0.08333333  0.25000000  0.58333333       0.028
  -0.16666667  0.33333333  0.66666667       0.028
   0.75000000 -0.58333333 -0.25000000       0.028
   0.66666667 -0.50000000 -0.16666667       0.028
   0.58333333 -0.41666667 -0.08333333       0.028
   0.50000000 -0.33333333  0.00000000       0.014
  -0.00000000  0.16666667  0.66666667       0.014
  -0.08333333  0.25000000  0.75000000       0.028
   0.83333333 -0.66666667 -0.16666667       0.028
   0.75000000 -0.58333333 -0.08333333       0.028
   0.66666667 -0.50000000  0.00000000       0.014
   0.00000000  0.16666667  0.83333333       0.014
   0.91666667 -0.75000000 -0.08333333       0.028
   0.83333333 -0.66666667  0.00000000       0.014
   1.00000000 -0.83333333  0.00000000       0.007
   0.00000000  0.33333333  0.66666667       0.014
   0.91666667 -0.58333333 -0.25000000       0.028
   0.83333333 -0.50000000 -0.16666667       0.014
   1.00000000 -0.66666667 -0.16666667       0.014
   0.91666667 -0.58333333 -0.08333333       0.028
   0.83333333 -0.50000000  0.00000000       0.014
   1.00000000 -0.66666667  0.00000000       0.007
   1.00000000 -0.50000000  0.00000000       0.003
 
 k-points in reciprocal lattice and weights: Gamma centered Monkhorst-Pack           
   0.00000000  0.00000000  0.00000000       0.001
   0.08333333  0.00000000  0.00000000       0.005
   0.16666667  0.00000000  0.00000000       0.005
   0.25000000  0.00000000  0.00000000       0.005
   0.33333333  0.00000000  0.00000000       0.005
   0.41666667  0.00000000  0.00000000       0.005
   0.50000000  0.00000000  0.00000000       0.002
   0.08333333  0.08333333  0.00000000       0.003
   0.16666667  0.08333333  0.00000000       0.014
   0.25000000  0.08333333  0.00000000       0.014
   0.33333333  0.08333333  0.00000000       0.014
   0.41666667  0.08333333  0.00000000       0.014
   0.50000000  0.08333333  0.00000000       0.014
  -0.41666667  0.08333333  0.00000000       0.014
  -0.33333333  0.08333333  0.00000000       0.014
  -0.25000000  0.08333333  0.00000000       0.014
  -0.16666667  0.08333333  0.00000000       0.014
  -0.08333333  0.08333333  0.00000000       0.007
   0.16666667  0.16666667  0.00000000       0.003
   0.25000000  0.16666667  0.00000000       0.014
   0.33333333  0.16666667  0.00000000       0.014
   0.41666667  0.16666667  0.00000000       0.014
   0.50000000  0.16666667  0.00000000       0.014
  -0.41666667  0.16666667  0.00000000       0.014
  -0.33333333  0.16666667  0.00000000       0.014
  -0.25000000  0.16666667  0.00000000       0.014
  -0.16666667  0.16666667  0.00000000       0.007
   0.25000000  0.25000000  0.00000000       0.003
   0.33333333  0.25000000  0.00000000       0.014
   0.41666667  0.25000000  0.00000000       0.014
   0.50000000  0.25000000  0.00000000       0.014
  -0.41666667  0.25000000  0.00000000       0.014
  -0.33333333  0.25000000  0.00000000       0.014
  -0.25000000  0.25000000  0.00000000       0.007
   0.33333333  0.33333333  0.00000000       0.003
   0.41666667  0.33333333  0.00000000       0.014
   0.50000000  0.33333333  0.00000000       0.014
  -0.41666667  0.33333333  0.00000000       0.014
  -0.33333333  0.33333333  0.00000000       0.007
   0.41666667  0.41666667  0.00000000       0.003
   0.50000000  0.41666667  0.00000000       0.014
  -0.41666667  0.41666667  0.00000000       0.007
   0.50000000  0.50000000  0.00000000       0.002
   0.25000000  0.16666667  0.08333333       0.014
   0.33333333  0.16666667  0.08333333       0.028
   0.41666667  0.16666667  0.08333333       0.028
   0.50000000  0.16666667  0.08333333       0.028
  -0.41666667  0.16666667  0.08333333       0.014
   0.33333333  0.25000000  0.08333333       0.014
   0.41666667  0.25000000  0.08333333       0.028
   0.50000000  0.25000000  0.08333333       0.028
  -0.41666667  0.25000000  0.08333333       0.028
  -0.33333333  0.25000000  0.08333333       0.028
  -0.25000000  0.25000000  0.08333333       0.028
  -0.16666667  0.25000000  0.08333333       0.014
   0.41666667  0.33333333  0.08333333       0.014
   0.50000000  0.33333333  0.08333333       0.028
  -0.41666667  0.33333333  0.08333333       0.028
  -0.33333333  0.33333333  0.08333333       0.028
  -0.25000000  0.33333333  0.08333333       0.014
   0.50000000  0.41666667  0.08333333       0.014
  -0.41666667  0.41666667  0.08333333       0.028
  -0.33333333  0.41666667  0.08333333       0.014
  -0.41666667  0.50000000  0.08333333       0.007
   0.50000000  0.33333333  0.16666667       0.014
  -0.41666667  0.33333333  0.16666667       0.028
  -0.33333333  0.33333333  0.16666667       0.014
  -0.41666667  0.41666667  0.16666667       0.014
  -0.33333333  0.41666667  0.16666667       0.028
  -0.25000000  0.41666667  0.16666667       0.014
  -0.33333333  0.50000000  0.16666667       0.007
  -0.25000000  0.50000000  0.25000000       0.003
 
 position of ions in fractional coordinates (direct lattice) 
   0.00000000  0.00000000  0.00000000
   0.25000000  0.25000000  0.25000000
 
 position of ions in cartesian coordinates  (Angst):
   0.00000000  0.00000000  0.00000000
   1.15470054  1.15470054  1.15470054
 


--------------------------------------------------------------------------------------------------------


 k-point  1 :   0.0000 0.0000 0.0000  plane waves:     869
 k-point  2 :   0.0833 0.0000 0.0000  plane waves:     851
 k-point  3 :   0.1667 0.0000 0.0000  plane waves:     830
 k-point  4 :   0.2500 0.0000 0.0000  plane waves:     821
 k-point  5 :   0.3333 0.0000 0.0000  plane waves:     823
 k-point  6 :   0.4167 0.0000 0.0000  plane waves:     820
 k-point  7 :   0.5000 0.0000 0.0000  plane waves:     832
 k-point  8 :   0.0833 0.0833 0.0000  plane waves:     841
 k-point  9 :   0.1667 0.0833 0.0000  plane waves:     838
 k-point 10 :   0.2500 0.0833 0.0000  plane waves:     826
 k-point 11 :   0.3333 0.0833 0.0000  plane waves:     830
 k-point 12 :   0.4167 0.0833 0.0000  plane waves:     818
 k-point 13 :   0.5000 0.0833 0.0000  plane waves:     821
 k-point 14 :  -0.4167 0.0833 0.0000  plane waves:     823
 k-point 15 :  -0.3333 0.0833 0.0000  plane waves:     822
 k-point 16 :  -0.2500 0.0833 0.0000  plane waves:     826
 k-point 17 :  -0.1667 0.0833 0.0000  plane waves:     828
 k-point 18 :  -0.0833 0.0833 0.0000  plane waves:     835
 k-point 19 :   0.1667 0.1667 0.0000  plane waves:     821
 k-point 20 :   0.2500 0.1667 0.0000  plane waves:     832
 k-point 21 :   0.3333 0.1667 0.0000  plane waves:     832
 k-point 22 :   0.4167 0.1667 0.0000  plane waves:     820
 k-point 23 :   0.5000 0.1667 0.0000  plane waves:     824
 k-point 24 :  -0.4167 0.1667 0.0000  plane waves:     825
 k-point 25 :  -0.3333 0.1667 0.0000  plane waves:     819
 k-point 26 :  -0.2500 0.1667 0.0000  plane waves:     822
 k-point 27 :  -0.1667 0.1667 0.0000  plane waves:     829
 k-point 28 :   0.2500 0.2500 0.0000  plane waves:     833
 k-point 29 :   0.3333 0.2500 0.0000  plane waves:     830
 k-point 30 :   0.4167 0.2500 0.0000  plane waves:     822
 k-point 31 :   0.5000 0.2500 0.0000  plane waves:     818
 k-point 32 :  -0.4167 0.2500 0.0000  plane waves:     823
 k-point 33 :  -0.3333 0.2500 0.0000  plane waves:     821
 k-point 34 :  -0.2500 0.2500 0.0000  plane waves:     819
 k-point 35 :   0.3333 0.3333 0.0000  plane waves:     829
 k-point 36 :   0.4167 0.3333 0.0000  plane waves:     818
 k-point 37 :   0.5000 0.3333 0.0000  plane waves:     816
 k-point 38 :  -0.4167 0.3333 0.0000  plane waves:     818
 k-point 39 :  -0.3333 0.3333 0.0000  plane waves:     816
 k-point 40 :   0.4167 0.4167 0.0000  plane waves:     810
 k-point 41 :   0.5000 0.4167 0.0000  plane waves:     813
 k-point 42 :  -0.4167 0.4167 0.0000  plane waves:     818
 k-point 43 :   0.5000 0.5000 0.0000  plane waves:     806
 k-point 44 :   0.2500 0.1667 0.0833  plane waves:     829
 k-point 45 :   0.3333 0.1667 0.0833  plane waves:     832
 k-point 46 :   0.4167 0.1667 0.0833  plane waves:     822
 k-point 47 :   0.5000 0.1667 0.0833  plane waves:     822
 k-point 48 :  -0.4167 0.1667 0.0833  plane waves:     824
 k-point 49 :   0.3333 0.2500 0.0833  plane waves:     834
 k-point 50 :   0.4167 0.2500 0.0833  plane waves:     825
 k-point 51 :   0.5000 0.2500 0.0833  plane waves:     814
 k-point 52 :  -0.4167 0.2500 0.0833  plane waves:     821
 k-point 53 :  -0.3333 0.2500 0.0833  plane waves:     825
 k-point 54 :  -0.2500 0.2500 0.0833  plane waves:     821
 k-point 55 :  -0.1667 0.2500 0.0833  plane waves:     830
 k-point 56 :   0.4167 0.3333 0.0833  plane waves:     820
 k-point 57 :   0.5000 0.3333 0.0833  plane waves:     816
 k-point 58 :  -0.4167 0.3333 0.0833  plane waves:     817
 k-point 59 :  -0.3333 0.3333 0.0833  plane waves:     821
 k-point 60 :  -0.2500 0.3333 0.0833  plane waves:     821
 k-point 61 :   0.5000 0.4167 0.0833  plane waves:     813
 k-point 62 :  -0.4167 0.4167 0.0833  plane waves:     814
 k-point 63 :  -0.3333 0.4167 0.0833  plane waves:     816
 k-point 64 :  -0.4167 0.5000 0.0833  plane waves:     814
 k-point 65 :   0.5000 0.3333 0.1667  plane waves:     822
 k-point 66 :  -0.4167 0.3333 0.1667  plane waves:     820
 k-point 67 :  -0.3333 0.3333 0.1667  plane waves:     826
 k-point 68 :  -0.4167 0.4167 0.1667  plane waves:     819
 k-point 69 :  -0.3333 0.4167 0.1667  plane waves:     818
 k-point 70 :  -0.2500 0.4167 0.1667  plane waves:     822
 k-point 71 :  -0.3333 0.5000 0.1667  plane waves:     804
 k-point 72 :  -0.2500 0.5000 0.2500  plane waves:     792

 maximum and minimum number of plane-waves per node :       869      792

 maximum number of plane-waves:       869
 maximum index in each direction: 
   IXMAX=    6   IYMAX=    6   IZMAX=    6
   IXMIN=   -7   IYMIN=   -7   IZMIN=   -6

 WARNING: aliasing errors must be expected set NGX to  28 to avoid them
 WARNING: aliasing errors must be expected set NGY to  28 to avoid them
 WARNING: aliasing errors must be expected set NGZ to  26 to avoid them
 aliasing errors are usually negligible using standard VASP settings
 and one can safely disregard these warnings

 serial   3D FFT for wavefunctions
 parallel 3D FFT for charge:
    minimum data exchange during FFTs selected (reduces bandwidth)


 total amount of memory used by VASP on root node    37812. kBytes
========================================================================

   base      :      30000. kBytes
   nonl-proj :       4046. kBytes
   fftplans  :        595. kBytes
   grid      :       1120. kBytes
   one-center:          6. kBytes
   wavefun   :       2045. kBytes
 
     INWAV:  cpu time    0.00: real time    0.00
 Broyden mixing: mesh for mixing (old mesh)
   NGX = 13   NGY = 13   NGZ = 13
  (NGX  = 40   NGY  = 40   NGZ  = 40)
  gives a total of   2197 points

 initial charge density was supplied:
 charge density of overlapping atoms calculated
 number of electron       8.0000000 magnetization 
 keeping initial charge density in first step


--------------------------------------------------------------------------------------------------------


 Maximum index for augmentation-charges         2631 (set IRDMAX)


--------------------------------------------------------------------------------------------------------


 First call to EWALD:  gamma=   0.609
 Maximum number of real-space cells 3x 3x 3
 Maximum number of reciprocal cells 3x 3x 3

 FEWALD executed in parallel
    FEWALD:  cpu time    0.00: real time    0.00


----------------------------------------- Iteration    1(   1)  ---------------------------------------


    POTLOK:  cpu time    0.01: real time    0.01
    SETDIJ:  cpu time    0.00: real time    0.00
     EDDAV:  cpu time    0.15: real time    0.16
       DOS:  cpu time    0.00: real time    0.00
    --------------------------------------------
      LOOP:  cpu time    0.16: real time    0.17

 eigenvalue-minimisations  :  1168
 total energy-change (2. order) : 0.1291943E+02  (-0.4130409E+03)
 number of electron       8.0000000 magnetization 
 augmentation part        8.0000000 magnetization 

 Free energy of the ion-electron system (eV)
  ---------------------------------------------------
  alpha Z        PSCENC =         5.46620270
  Ewald energy   TEWEN  =      -268.70601925
  -Hartree energ DENC   =        -4.97766253
  -exchange      EXHF   =         0.00000000
  -V(xc)+E(xc)   XCENC  =       -16.43163063
  PAW double counting   =        65.95520812      -30.76852678
  entropy T*S    EENTRO =        -0.00051032
  eigenvalues    EBANDS =        56.24924873
  atomic energy  EATOM  =       206.13311910
  ---------------------------------------------------
  free energy    TOTEN  =        12.91942914 eV

  energy without entropy =       12.91993946  energy(sigma->0) =       12.91968430


--------------------------------------------------------------------------------------------------------




----------------------------------------- Iteration    1(   2)  ---------------------------------------


     EDDAV:  cpu time    0.21: real time    0.21
       DOS:  cpu time    0.00: real time    0.00
    --------------------------------------------
      LOOP:  cpu time    0.21: real time    0.22

 eigenvalue-minimisations  :  1736
 total energy-change (2. order) :-0.2001428E+02  (-0.1920879E+02)
 number of electron       8.0000000 magnetization 
 augmentation part        8.0000000 magnetization 

 Free energy of the ion-electron system (eV)
  ---------------------------------------------------
  alpha Z        PSCENC =         5.46620270
  Ewald energy   TEWEN  =      -268.70601925
  -Hartree energ DENC   =        -4.97766253
  -exchange      EXHF   =         0.00000000
  -V(xc)+E(xc)   XCENC  =       -16.43163063
  PAW double counting   =        65.95520812      -30.76852678
  entropy T*S    EENTRO =        -0.00054773
  eigenvalues    EBANDS =        36.23500318
  atomic energy  EATOM  =       206.13311910
  ---------------------------------------------------
  free energy    TOTEN  =        -7.09485382 eV

  energy without entropy =       -7.09430609  energy(sigma->0) =       -7.09457995


--------------------------------------------------------------------------------------------------------




----------------------------------------- Iteration    1(   3)  ---------------------------------------


     EDDAV:  cpu time    0.18: real time    0.18
       DOS:  cpu time    0.00: real time    0.00
    --------------------------------------------
      LOOP:  cpu time    0.18: real time    0.18

 eigenvalue-minimisations  :  1432
 total energy-change (2. order) :-0.2229649E+00  (-0.2227375E+00)
 number of electron       8.0000000 magnetization 
 augmentation part        8.0000000 magnetization 

 Free energy of the ion-electron system (eV)
  ---------------------------------------------------
  alpha Z        PSCENC =         5.46620270
  Ewald energy   TEWEN  =      -268.70601925
  -Hartree energ DENC   =        -4.97766253
  -exchange      EXHF   =         0.00000000
  -V(xc)+E(xc)   XCENC  =       -16.43163063
  PAW double counting   =        65.95520812      -30.76852678
  entropy T*S    EENTRO =        -0.00048903
  eigenvalues    EBANDS =        36.01197961
  atomic energy  EATOM  =       206.13311910
  ---------------------------------------------------
  free energy    TOTEN  =        -7.31781869 eV

  energy without entropy =       -7.31732966  energy(sigma->0) =       -7.31757418


--------------------------------------------------------------------------------------------------------




----------------------------------------- Iteration    1(   4)  ---------------------------------------


     EDDAV:  cpu time    0.23: real time    0.23
       DOS:  cpu time    0.00: real time    0.00
    --------------------------------------------
      LOOP:  cpu time    0.23: real time    0.24

 eigenvalue-minimisations  :  1856
 total energy-change (2. order) :-0.7669502E-03  (-0.7667406E-03)
 number of electron       8.0000000 magnetization 
 augmentation part        8.0000000 magnetization 

 Free energy of the ion-electron system (eV)
  ---------------------------------------------------
  alpha Z        PSCENC =         5.46620270
  Ewald energy   TEWEN  =      -268.70601925
  -Hartree energ DENC   =        -4.97766253
  -exchange      EXHF   =         0.00000000
  -V(xc)+E(xc)   XCENC  =       -16.43163063
  PAW double counting   =        65.95520812      -30.76852678
  entropy T*S    EENTRO =        -0.00048334
  eigenvalues    EBANDS =        36.01120696
  atomic energy  EATOM  =       206.13311910
  ---------------------------------------------------
  free energy    TOTEN  =        -7.31858564 eV

  energy without entropy =       -7.31810231  energy(sigma->0) =       -7.31834397


--------------------------------------------------------------------------------------------------------




----------------------------------------- Iteration    1(   5)  ---------------------------------------


     EDDAV:  cpu time    0.19: real time    0.19
       DOS:  cpu time    0.00: real time    0.00
    CHARGE:  cpu time    0.01: real time    0.01
    MIXING:  cpu time    0.00: real time    0.00
    --------------------------------------------
      LOOP:  cpu time    0.20: real time    0.21

 eigenvalue-minimisations  :  1520
 total energy-change (2. order) :-0.7531774E-06  (-0.7529063E-06)
 number of electron       8.0000001 magnetization 
 augmentation part       -0.5396468 magnetization 

 Broyden mixing:
  rms(total) = 0.43778E+00    rms(broyden)= 0.43778E+00
  rms(prec ) = 0.13966E+01
  weight for this iteration     100.00

 Free energy of the ion-electron system (eV)
  ---------------------------------------------------
  alpha Z        PSCENC =         5.46620270
  Ewald energy   TEWEN  =      -268.70601925
  -Hartree energ DENC   =        -4.97766253
  -exchange      EXHF   =         0.00000000
  -V(xc)+E(xc)   XCENC  =       -16.43163063
  PAW double counting   =        65.95520812      -30.76852678
  entropy T*S    EENTRO =        -0.00048334
  eigenvalues    EBANDS =        36.01120621
  atomic energy  EATOM  =       206.13311910
  ---------------------------------------------------
  free energy    TOTEN  =        -7.31858640 eV

  energy without entropy =       -7.31810306  energy(sigma->0) =       -7.31834473


--------------------------------------------------------------------------------------------------------




----------------------------------------- Iteration    1(   6)  ---------------------------------------


    POTLOK:  cpu time    0.01: real time    0.01
    SETDIJ:  cpu time    0.00: real time    0.00
     EDDAV:  cpu time    0.16: real time    0.16
       DOS:  cpu time    0.00: real time    0.00
    CHARGE:  cpu time    0.01: real time    0.01
    MIXING:  cpu time    0.00: real time    0.00
    --------------------------------------------
      LOOP:  cpu time    0.18: real time    0.18

 eigenvalue-minimisations  :  1248
 total energy-change (2. order) : 0.4531107E+00  (-0.3530270E-01)
 number of electron       8.0000001 magnetization 
 augmentation part       -0.5261226 magnetization 

 Broyden mixing:
  rms(total) = 0.23483E+00    rms(broyden)= 0.23483E+00
  rms(prec ) = 0.73162E+00
  weight for this iteration     100.00

 eigenvalues of (default mixing * dielectric matrix)
  average eigenvalue GAMMA=   2.1345
  2.1345

 Free energy of the ion-electron system (eV)
  ---------------------------------------------------
  alpha Z        PSCENC =         5.46620270
  Ewald energy   TEWEN  =      -268.70601925
  -Hartree energ DENC   =        -6.86058505
  -exchange      EXHF   =         0.00000000
  -V(xc)+E(xc)   XCENC  =       -16.08543554
  PAW double counting   =        80.12974181      -45.33658622
  entropy T*S    EENTRO =        -0.00073101
  eigenvalues    EBANDS =        38.39481776
  atomic energy  EATOM  =       206.13311910
  ---------------------------------------------------
  free energy    TOTEN  =        -6.86547570 eV

  energy without entropy =       -6.86474469  energy(sigma->0) =       -6.86511019


--------------------------------------------------------------------------------------------------------




----------------------------------------- Iteration    1(   7)  ---------------------------------------


    POTLOK:  cpu time    0.01: real time    0.01
    SETDIJ:  cpu time    0.00: real time    0.00
     EDDAV:  cpu time    0.18: real time    0.18
       DOS:  cpu time    0.00: real time    0.00
    CHARGE:  cpu time    0.01: real time    0.01
    MIXING:  cpu time    0.00: real time    0.00
    --------------------------------------------
      LOOP:  cpu time    0.20: real time    0.21

 eigenvalue-minimisations  :  1448
 total energy-change (2. order) : 0.1563997E+00  (-0.3847714E-01)
 number of electron       8.0000001 magnetization 
 augmentation part       -0.5129934 magnetization 

 Broyden mixing:
  rms(total) = 0.25985E-01    rms(broyden)= 0.25985E-01
  rms(prec ) = 0.69208E-01
  weight for this iteration     100.00

 eigenvalues of (default mixing * dielectric matrix)
  average eigenvalue GAMMA=   2.2951
  2.0169  2.5734

 Free energy of the ion-electron system (eV)
  ---------------------------------------------------
  alpha Z        PSCENC =         5.46620270
  Ewald energy   TEWEN  =      -268.70601925
  -Hartree energ DENC   =        -9.31079919
  -exchange      EXHF   =         0.00000000
  -V(xc)+E(xc)   XCENC  =       -15.62142948
  PAW double counting   =        99.25745033      -64.94327054
  entropy T*S    EENTRO =        -0.00083710
  eigenvalues    EBANDS =        41.01650748
  atomic energy  EATOM  =       206.13311910
  ---------------------------------------------------
  free energy    TOTEN  =        -6.70907595 eV

  energy without entropy =       -6.70823885  energy(sigma->0) =       -6.70865740


--------------------------------------------------------------------------------------------------------




----------------------------------------- Iteration    1(   8)  ---------------------------------------


    POTLOK:  cpu time    0.01: real time    0.01
    SETDIJ:  cpu time    0.00: real time    0.00
     EDDAV:  cpu time    0.18: real time    0.18
       DOS:  cpu time    0.00: real time    0.00
    CHARGE:  cpu time    0.01: real time    0.01
    MIXING:  cpu time    0.00: real time    0.00
    --------------------------------------------
      LOOP:  cpu time    0.20: real time    0.20

 eigenvalue-minimisations  :  1408
 total energy-change (2. order) :-0.9850796E-03  (-0.6143685E-03)
 number of electron       8.0000001 magnetization 
 augmentation part       -0.5140808 magnetization 

 Broyden mixing:
  rms(total) = 0.28674E-02    rms(broyden)= 0.28674E-02
  rms(prec ) = 0.71146E-02
  weight for this iteration     100.00

 eigenvalues of (default mixing * dielectric matrix)
  average eigenvalue GAMMA=   2.0185
  1.3698  2.6457  2.0401

 Free energy of the ion-electron system (eV)
  ---------------------------------------------------
  alpha Z        PSCENC =         5.46620270
  Ewald energy   TEWEN  =      -268.70601925
  -Hartree energ DENC   =        -9.38301835
  -exchange      EXHF   =         0.00000000
  -V(xc)+E(xc)   XCENC  =       -15.55763910
  PAW double counting   =       100.83230805      -66.54059640
  entropy T*S    EENTRO =        -0.00080814
  eigenvalues    EBANDS =        41.04639036
  atomic energy  EATOM  =       206.13311910
  ---------------------------------------------------
  free energy    TOTEN  =        -6.71006103 eV

  energy without entropy =       -6.70925289  energy(sigma->0) =       -6.70965696


--------------------------------------------------------------------------------------------------------




----------------------------------------- Iteration    1(   9)  ---------------------------------------


    POTLOK:  cpu time    0.01: real time    0.01
    SETDIJ:  cpu time    0.00: real time    0.00
     EDDAV:  cpu time    0.22: real time    0.22
       DOS:  cpu time    0.00: real time    0.00
    CHARGE:  cpu time    0.01: real time    0.01
    MIXING:  cpu time    0.00: real time    0.00
    --------------------------------------------
      LOOP:  cpu time    0.24: real time    0.25

 eigenvalue-minimisations  :  1776
 total energy-change (2. order) :-0.2810406E-04  (-0.5460091E-05)
 number of electron       8.0000001 magnetization 
 augmentation part       -0.5142317 magnetization 

 Broyden mixing:
  rms(total) = 0.12394E-02    rms(broyden)= 0.12394E-02
  rms(prec ) = 0.32566E-02
  weight for this iteration     100.00

 eigenvalues of (default mixing * dielectric matrix)
  average eigenvalue GAMMA=   2.0424
  0.9769  2.7448  2.4371  2.0105

 Free energy of the ion-electron system (eV)
  ---------------------------------------------------
  alpha Z        PSCENC =         5.46620270
  Ewald energy   TEWEN  =      -268.70601925
  -Hartree energ DENC   =        -9.38198118
  -exchange      EXHF   =         0.00000000
  -V(xc)+E(xc)   XCENC  =       -15.55489299
  PAW double counting   =       100.78255999      -66.48930463
  entropy T*S    EENTRO =        -0.00080160
  eigenvalues    EBANDS =        41.04102872
  atomic energy  EATOM  =       206.13311910
  ---------------------------------------------------
  free energy    TOTEN  =        -6.71008913 eV

  energy without entropy =       -6.70928753  energy(sigma->0) =       -6.70968833


--------------------------------------------------------------------------------------------------------




----------------------------------------- Iteration    1(  10)  ---------------------------------------


    POTLOK:  cpu time    0.01: real time    0.01
    SETDIJ:  cpu time    0.00: real time    0.00
     EDDAV:  cpu time    0.17: real time    0.17
       DOS:  cpu time    0.00: real time    0.00
    CHARGE:  cpu time    0.01: real time    0.01
    MIXING:  cpu time    0.00: real time    0.00
    --------------------------------------------
      LOOP:  cpu time    0.19: real time    0.19

 eigenvalue-minimisations  :  1344
 total energy-change (2. order) :-0.4981783E-05  (-0.6948340E-06)
 number of electron       8.0000001 magnetization 
 augmentation part       -0.5141915 magnetization 

 Broyden mixing:
  rms(total) = 0.14715E-03    rms(broyden)= 0.14715E-03
  rms(prec ) = 0.39309E-03
  weight for this iteration     100.00

 eigenvalues of (default mixing * dielectric matrix)
  average eigenvalue GAMMA=   1.9060
  2.8526  2.5715  1.9890  1.0223  1.0946

 Free energy of the ion-electron system (eV)
  ---------------------------------------------------
  alpha Z        PSCENC =         5.46620270
  Ewald energy   TEWEN  =      -268.70601925
  -Hartree energ DENC   =        -9.39085507
  -exchange      EXHF   =         0.00000000
  -V(xc)+E(xc)   XCENC  =       -15.55444466
  PAW double counting   =       100.68858413      -66.39425324
  entropy T*S    EENTRO =        -0.00080199
  eigenvalues    EBANDS =        41.04837415
  atomic energy  EATOM  =       206.13311910
  ---------------------------------------------------
  free energy    TOTEN  =        -6.71009412 eV

  energy without entropy =       -6.70929213  energy(sigma->0) =       -6.70969312


--------------------------------------------------------------------------------------------------------




----------------------------------------- Iteration    1(  11)  ---------------------------------------


    POTLOK:  cpu time    0.01: real time    0.01
    SETDIJ:  cpu time    0.00: real time    0.00
     EDDAV:  cpu time    0.22: real time    0.22
       DOS:  cpu time    0.00: real time    0.00
    CHARGE:  cpu time    0.01: real time    0.01
    MIXING:  cpu time    0.00: real time    0.00
    --------------------------------------------
      LOOP:  cpu time    0.24: real time    0.25

 eigenvalue-minimisations  :  1752
 total energy-change (2. order) : 0.3504278E-06  (-0.2245927E-07)
 number of electron       8.0000001 magnetization 
 augmentation part       -0.5141989 magnetization 

 Broyden mixing:
  rms(total) = 0.52274E-04    rms(broyden)= 0.52274E-04
  rms(prec ) = 0.96753E-04
  weight for this iteration     100.00

 eigenvalues of (default mixing * dielectric matrix)
  average eigenvalue GAMMA=   2.0198
  2.9785  1.9959  2.5685  2.5685  0.9911  1.0160

 Free energy of the ion-electron system (eV)
  ---------------------------------------------------
  alpha Z        PSCENC =         5.46620270
  Ewald energy   TEWEN  =      -268.70601925
  -Hartree energ DENC   =        -9.38978110
  -exchange      EXHF   =         0.00000000
  -V(xc)+E(xc)   XCENC  =       -15.55462246
  PAW double counting   =       100.67711700      -66.38247496
  entropy T*S    EENTRO =        -0.00080138
  eigenvalues    EBANDS =        41.04716658
  atomic energy  EATOM  =       206.13311910
  ---------------------------------------------------
  free energy    TOTEN  =        -6.71009377 eV

  energy without entropy =       -6.70929239  energy(sigma->0) =       -6.70969308


--------------------------------------------------------------------------------------------------------




----------------------------------------- Iteration    1(  12)  ---------------------------------------


    POTLOK:  cpu time    0.00: real time    0.01
    SETDIJ:  cpu time    0.00: real time    0.00
     EDDAV:  cpu time    0.19: real time    0.19
       DOS:  cpu time    0.00: real time    0.00
    CHARGE:  cpu time    0.01: real time    0.01
    MIXING:  cpu time    0.00: real time    0.00
    --------------------------------------------
      LOOP:  cpu time    0.21: real time    0.22

 eigenvalue-minimisations  :  1504
 total energy-change (2. order) :-0.1198711E-06  (-0.1212579E-08)
 number of electron       8.0000001 magnetization 
 augmentation part       -0.5141967 magnetization 

 Broyden mixing:
  rms(total) = 0.29173E-05    rms(broyden)= 0.29171E-05
  rms(prec ) = 0.91095E-05
  weight for this iteration     100.00

 eigenvalues of (default mixing * dielectric matrix)
  average eigenvalue GAMMA=   1.8535
  2.9724  2.6219  2.5291  1.9982  0.9955  0.9955  0.8618

 Free energy of the ion-electron system (eV)
  ---------------------------------------------------
  alpha Z        PSCENC =         5.46620270
  Ewald energy   TEWEN  =      -268.70601925
  -Hartree energ DENC   =        -9.39002771
  -exchange      EXHF   =         0.00000000
  -V(xc)+E(xc)   XCENC  =       -15.55460630
  PAW double counting   =       100.68475318      -66.39020978
  entropy T*S    EENTRO =        -0.00080146
  eigenvalues    EBANDS =        41.04749563
  atomic energy  EATOM  =       206.13311910
  ---------------------------------------------------
  free energy    TOTEN  =        -6.71009389 eV

  energy without entropy =       -6.70929243  energy(sigma->0) =       -6.70969316


--------------------------------------------------------------------------------------------------------




----------------------------------------- Iteration    1(  13)  ---------------------------------------


    POTLOK:  cpu time    0.01: real time    0.01
    SETDIJ:  cpu time    0.00: real time    0.00
     EDDAV:  cpu time    0.22: real time    0.22
       DOS:  cpu time    0.00: real time    0.00
    CHARGE:  cpu time    0.01: real time    0.01
    MIXING:  cpu time    0.00: real time    0.00
    --------------------------------------------
      LOOP:  cpu time    0.24: real time    0.24

 eigenvalue-minimisations  :  1720
 total energy-change (2. order) : 0.2690967E-08  (-0.1324517E-10)
 number of electron       8.0000001 magnetization 
 augmentation part       -0.5141968 magnetization 

 Broyden mixing:
  rms(total) = 0.11339E-05    rms(broyden)= 0.11338E-05
  rms(prec ) = 0.19107E-05
  weight for this iteration     100.00

 eigenvalues of (default mixing * dielectric matrix)
  average eigenvalue GAMMA=   1.9693
  3.0227  1.9987  2.6373  2.6373  2.4730  1.0046  0.9904  0.9904

 Free energy of the ion-electron system (eV)
  ---------------------------------------------------
  alpha Z        PSCENC =         5.46620270
  Ewald energy   TEWEN  =      -268.70601925
  -Hartree energ DENC   =        -9.38999501
  -exchange      EXHF   =         0.00000000
  -V(xc)+E(xc)   XCENC  =       -15.55461099
  PAW double counting   =       100.68479090      -66.39024617
  entropy T*S    EENTRO =        -0.00080145
  eigenvalues    EBANDS =        41.04746629
  atomic energy  EATOM  =       206.13311910
  ---------------------------------------------------
  free energy    TOTEN  =        -6.71009388 eV

  energy without entropy =       -6.70929243  energy(sigma->0) =       -6.70969316


--------------------------------------------------------------------------------------------------------




----------------------------------------- Iteration    1(  14)  ---------------------------------------


    POTLOK:  cpu time    0.01: real time    0.01
    SETDIJ:  cpu time    0.00: real time    0.00
     EDDAV:  cpu time    0.14: real time    0.13
       DOS:  cpu time    0.00: real time    0.00
    CHARGE:  cpu time    0.01: real time    0.01
    MIXING:  cpu time    0.00: real time    0.00
    --------------------------------------------
      LOOP:  cpu time    0.15: real time    0.16

 eigenvalue-minimisations  :   928
 total energy-change (2. order) :-0.2515321E-09  (-0.1073015E-11)
 number of electron       8.0000001 magnetization 
 augmentation part       -0.5141968 magnetization 

 Broyden mixing:
  rms(total) = 0.18707E-06    rms(broyden)= 0.18692E-06
  rms(prec ) = 0.57437E-06
  weight for this iteration     100.00

 eigenvalues of (default mixing * dielectric matrix)
  average eigenvalue GAMMA=   1.8491
  2.9882  1.9986  2.7307  2.6084  2.5160  1.0051  0.9844  0.9844  0.8261

 Free energy of the ion-electron system (eV)
  ---------------------------------------------------
  alpha Z        PSCENC =         5.46620270
  Ewald energy   TEWEN  =      -268.70601925
  -Hartree energ DENC   =        -9.38999703
  -exchange      EXHF   =         0.00000000
  -V(xc)+E(xc)   XCENC  =       -15.55461057
  PAW double counting   =       100.68465841      -66.39011325
  entropy T*S    EENTRO =        -0.00080145
  eigenvalues    EBANDS =        41.04746744
  atomic energy  EATOM  =       206.13311910
  ---------------------------------------------------
  free energy    TOTEN  =        -6.71009388 eV

  energy without entropy =       -6.70929243  energy(sigma->0) =       -6.70969316


--------------------------------------------------------------------------------------------------------




----------------------------------------- Iteration    1(  15)  ---------------------------------------


    POTLOK:  cpu time    0.01: real time    0.01
    SETDIJ:  cpu time    0.00: real time    0.00
     EDDAV:  cpu time    0.11: real time    0.11
       DOS:  cpu time    0.00: real time    0.00
    CHARGE:  cpu time    0.01: real time    0.01
    MIXING:  cpu time    0.00: real time    0.00
    --------------------------------------------
      LOOP:  cpu time    0.13: real time    0.14

 eigenvalue-minimisations  :   736
 total energy-change (2. order) :-0.6609753E-09  (-0.1353978E-12)
 number of electron       8.0000001 magnetization 
 augmentation part       -0.5141968 magnetization 

 Broyden mixing:
  rms(total) = 0.26832E-07    rms(broyden)= 0.25754E-07
  rms(prec ) = 0.58123E-07
  weight for this iteration     100.00

 eigenvalues of (default mixing * dielectric matrix)
  average eigenvalue GAMMA=   1.9417
  1.9988  2.9287  2.7851  2.6269  2.6269  2.4569  1.0168  1.0168  0.9802  0.9802

 Free energy of the ion-electron system (eV)
  ---------------------------------------------------
  alpha Z        PSCENC =         5.46620270
  Ewald energy   TEWEN  =      -268.70601925
  -Hartree energ DENC   =        -9.38999516
  -exchange      EXHF   =         0.00000000
  -V(xc)+E(xc)   XCENC  =       -15.55461085
  PAW double counting   =       100.68464463      -66.39009933
  entropy T*S    EENTRO =        -0.00080145
  eigenvalues    EBANDS =        41.04746572
  atomic energy  EATOM  =       206.13311910
  ---------------------------------------------------
  free energy    TOTEN  =        -6.71009388 eV

  energy without entropy =       -6.70929243  energy(sigma->0) =       -6.70969316


--------------------------------------------------------------------------------------------------------




----------------------------------------- Iteration    1(  16)  ---------------------------------------


    POTLOK:  cpu time    0.01: real time    0.01
    SETDIJ:  cpu time    0.00: real time    0.00
     EDDAV:  cpu time    0.10: real time    0.11
       DOS:  cpu time    0.00: real time    0.00
    CHARGE:  cpu time    0.01: real time    0.01
    MIXING:  cpu time    0.00: real time    0.00
    --------------------------------------------
      LOOP:  cpu time    0.13: real time    0.14

 eigenvalue-minimisations  :   688
 total energy-change (2. order) : 0.1595538E-08  ( 0.7652501E-13)
 number of electron       8.0000001 magnetization 
 augmentation part       -0.5141968 magnetization 

 Broyden mixing:
  rms(total) = 0.10818E-07    rms(broyden)= 0.77706E-08
  rms(prec ) = 0.20592E-07
  weight for this iteration     100.00
  WARNING: grid for Broyden might be to small

 eigenvalues of (default mixing * dielectric matrix)
  average eigenvalue GAMMA=   1.8602
  1.9987  2.9309  2.9309  2.6393  2.5847  2.5148  1.0086  1.0086  0.9913  0.9719
  0.8824

 Free energy of the ion-electron system (eV)
  ---------------------------------------------------
  alpha Z        PSCENC =         5.46620270
  Ewald energy   TEWEN  =      -268.70601925
  -Hartree energ DENC   =        -9.38999494
  -exchange      EXHF   =         0.00000000
  -V(xc)+E(xc)   XCENC  =       -15.55461089
  PAW double counting   =       100.68464588      -66.39010057
  entropy T*S    EENTRO =        -0.00080145
  eigenvalues    EBANDS =        41.04746553
  atomic energy  EATOM  =       206.13311910
  ---------------------------------------------------
  free energy    TOTEN  =        -6.71009388 eV

  energy without entropy =       -6.70929243  energy(sigma->0) =       -6.70969316


--------------------------------------------------------------------------------------------------------




----------------------------------------- Iteration    1(  17)  ---------------------------------------


    POTLOK:  cpu time    0.01: real time    0.01
    SETDIJ:  cpu time    0.00: real time    0.00
     EDDAV:  cpu time    0.10: real time    0.11
       DOS:  cpu time    0.00: real time    0.00
    CHARGE:  cpu time    0.01: real time    0.01
    MIXING:  cpu time    0.00: real time    0.00
    --------------------------------------------
      LOOP:  cpu time    0.13: real time    0.13

 eigenvalue-minimisations  :   672
 total energy-change (2. order) :-0.1339714E-08  (-0.6335518E-13)
 number of electron       8.0000001 magnetization 
 augmentation part       -0.5141968 magnetization 

 Broyden mixing:
  rms(total) = 0.76587E-08    rms(broyden)= 0.14183E-08
  rms(prec ) = 0.38894E-08
  weight for this iteration     100.00
  WARNING: grid for Broyden might be to small

 eigenvalues of (default mixing * dielectric matrix)
  average eigenvalue GAMMA=   1.8250
  2.9613  1.9986  2.7908  2.6446  2.5266  2.5266  1.0013  0.9879  0.9868  0.9868
  1.3253  1.1635

 Free energy of the ion-electron system (eV)
  ---------------------------------------------------
  alpha Z        PSCENC =         5.46620270
  Ewald energy   TEWEN  =      -268.70601925
  -Hartree energ DENC   =        -9.38999499
  -exchange      EXHF   =         0.00000000
  -V(xc)+E(xc)   XCENC  =       -15.55461088
  PAW double counting   =       100.68464671      -66.39010140
  entropy T*S    EENTRO =        -0.00080145
  eigenvalues    EBANDS =        41.04746558
  atomic energy  EATOM  =       206.13311910
  ---------------------------------------------------
  free energy    TOTEN  =        -6.71009388 eV

  energy without entropy =       -6.70929243  energy(sigma->0) =       -6.70969316


--------------------------------------------------------------------------------------------------------




----------------------------------------- Iteration    1(  18)  ---------------------------------------


    POTLOK:  cpu time    0.01: real time    0.01
    SETDIJ:  cpu time    0.00: real time    0.00
     EDDAV:  cpu time    0.10: real time    0.11
       DOS:  cpu time    0.00: real time    0.00
    CHARGE:  cpu time    0.01: real time    0.01
    MIXING:  cpu time    0.00: real time    0.00
    --------------------------------------------
      LOOP:  cpu time    0.12: real time    0.13

 eigenvalue-minimisations  :   664
 total energy-change (2. order) : 0.1172509E-08  (-0.3314954E-13)
 number of electron       8.0000001 magnetization 
 augmentation part       -0.5141968 magnetization 

 Broyden mixing:
  rms(total) = 0.75630E-08    rms(broyden)= 0.74509E-09
  rms(prec ) = 0.17118E-08
  weight for this iteration     100.00
  WARNING: grid for Broyden might be to small

 eigenvalues of (default mixing * dielectric matrix)
  average eigenvalue GAMMA=   1.8684
  1.9986  2.9753  2.9753  2.7131  2.6022  2.6022  2.5002  1.0540  0.9878  0.9878
  1.0055  0.9927  0.8941

 Free energy of the ion-electron system (eV)
  ---------------------------------------------------
  alpha Z        PSCENC =         5.46620270
  Ewald energy   TEWEN  =      -268.70601925
  -Hartree energ DENC   =        -9.38999501
  -exchange      EXHF   =         0.00000000
  -V(xc)+E(xc)   XCENC  =       -15.55461088
  PAW double counting   =       100.68464669      -66.39010139
  entropy T*S    EENTRO =        -0.00080145
  eigenvalues    EBANDS =        41.04746559
  atomic energy  EATOM  =       206.13311910
  ---------------------------------------------------
  free energy    TOTEN  =        -6.71009388 eV

  energy without entropy =       -6.70929243  energy(sigma->0) =       -6.70969316


--------------------------------------------------------------------------------------------------------




----------------------------------------- Iteration    1(  19)  ---------------------------------------


    POTLOK:  cpu time    0.01: real time    0.01
    SETDIJ:  cpu time    0.00: real time    0.00
     EDDAV:  cpu time    0.10: real time    0.11
       DOS:  cpu time    0.00: real time    0.00
    CHARGE:  cpu time    0.01: real time    0.01
    MIXING:  cpu time    0.00: real time    0.00
    --------------------------------------------
      LOOP:  cpu time    0.13: real time    0.13

 eigenvalue-minimisations  :   672
 total energy-change (2. order) :-0.2746674E-09  ( 0.2231111E-13)
 number of electron       8.0000001 magnetization 
 augmentation part       -0.5141968 magnetization 

 Broyden mixing:
  rms(total) = 0.75299E-08    rms(broyden)= 0.23545E-09
  rms(prec ) = 0.65504E-09
  weight for this iteration     100.00
  WARNING: grid for Broyden might be to small

 eigenvalues of (default mixing * dielectric matrix)
  average eigenvalue GAMMA=   1.8142
  2.9794  1.9987  2.8167  2.6739  2.6177  2.4991  2.4037  1.4511  1.0218  1.0044
  1.0044  0.9905  0.9905  0.9471

 Free energy of the ion-electron system (eV)
  ---------------------------------------------------
  alpha Z        PSCENC =         5.46620270
  Ewald energy   TEWEN  =      -268.70601925
  -Hartree energ DENC   =        -9.38999501
  -exchange      EXHF   =         0.00000000
  -V(xc)+E(xc)   XCENC  =       -15.55461088
  PAW double counting   =       100.68464663      -66.39010132
  entropy T*S    EENTRO =        -0.00080145
  eigenvalues    EBANDS =        41.04746559
  atomic energy  EATOM  =       206.13311910
  ---------------------------------------------------
  free energy    TOTEN  =        -6.71009388 eV

  energy without entropy =       -6.70929243  energy(sigma->0) =       -6.70969316


--------------------------------------------------------------------------------------------------------




----------------------------------------- Iteration    1(  20)  ---------------------------------------


    POTLOK:  cpu time    0.01: real time    0.01
    SETDIJ:  cpu time    0.00: real time    0.00
     EDDAV:  cpu time    0.10: real time    0.11
       DOS:  cpu time    0.00: real time    0.00
    --------------------------------------------
      LOOP:  cpu time    0.11: real time    0.12

 eigenvalue-minimisations  :   648
 total energy-change (2. order) :-0.5039169E-10  ( 0.1122063E-13)
 number of electron       8.0000001 magnetization 
 augmentation part       -0.5141968 magnetization 

 Free energy of the ion-electron system (eV)
  ---------------------------------------------------
  alpha Z        PSCENC =         5.46620270
  Ewald energy   TEWEN  =      -268.70601925
  -Hartree energ DENC   =        -9.38999501
  -exchange      EXHF   =         0.00000000
  -V(xc)+E(xc)   XCENC  =       -15.55461088
  PAW double counting   =       100.68464663      -66.39010132
  entropy T*S    EENTRO =        -0.00080145
  eigenvalues    EBANDS =        41.04746559
  atomic energy  EATOM  =       206.13311910
  ---------------------------------------------------
  free energy    TOTEN  =        -6.71009388 eV

  energy without entropy =       -6.70929243  energy(sigma->0) =       -6.70969316


--------------------------------------------------------------------------------------------------------




 average (electrostatic) potential at core
  the test charge radii are     0.9892
  (the norm of the test charge is              1.0000)
       1 -77.0813       2 -77.0813
 
 
 
 E-fermi :  11.5750     XC(G=0): -11.4447     alpha+bet :-19.4730


 k-point     1 :       0.0000    0.0000    0.0000
  band No.  band energies     occupation 
      1      -4.1015      2.00000
      2      11.9561      0.00000
      3      11.9561      0.00000
      4      11.9561      0.00000
      5      14.5631      0.00000
      6      14.5631      0.00000
      7      14.5631      0.00000
      8      19.6864      0.00000

 k-point     2 :       0.0833    0.0000    0.0000
  band No.  band energies     occupation 
      1      -3.9666      2.00000
      2      10.8414      2.00000
      3      11.7201      0.00602
      4      11.7201      0.00602
      5      14.9139      0.00000
      6      14.9139      0.00000
      7      15.0241      0.00000
      8      19.2926      0.00000

 k-point     3 :       0.1667    0.0000    0.0000
  band No.  band energies     occupation 
      1      -3.5640      2.00000
      2       8.8090      2.00000
      3      11.2722      1.99999
      4      11.2722      1.99999
      5      15.3632      0.00000
      6      15.5192      0.00000
      7      15.5192      0.00000
      8      18.7875      0.00000

 k-point     4 :       0.2500    0.0000    0.0000
  band No.  band energies     occupation 
      1      -2.9017      2.00000
      2       6.6696      2.00000
      3      10.8683      2.00000
      4      10.8683      2.00000
      5      15.3732      0.00000
      6      15.5804      0.00000
      7      15.5804      0.00000
      8      19.2198      0.00000

 k-point     5 :       0.3333    0.0000    0.0000
  band No.  band energies     occupation 
      1      -2.0005      2.00000
      2       4.6468      2.00000
      3      10.5817      2.00000
      4      10.5817      2.00000
      5      15.1524      0.00000
      6      15.1524      0.00000
      7      15.2866      0.00000
      8      20.6234      0.00000

 k-point     6 :       0.4167    0.0000    0.0000
  band No.  band energies     occupation 
      1      -0.9351      2.00000
      2       2.8889      2.00000
      3      10.4185      2.00000
      4      10.4185      2.00000
      5      14.7623      0.00000
      6      14.7623      0.00000
      7      15.2166      0.00000
      8      20.2611      0.00000

 k-point     7 :       0.5000    0.0000    0.0000
  band No.  band energies     occupation 
      1      -0.2129      2.00000
      2       1.9331      2.00000
      3      10.3665      2.00000
      4      10.3665      2.00000
      5      14.6165      0.00000
      6      14.6165      0.00000
      7      15.1923      0.00000
      8      20.0848      0.00000

 k-point     8 :       0.0833    0.0833    0.0000
  band No.  band energies     occupation 
      1      -3.9216      2.00000
      2      11.1940      2.00000
      3      11.1940      2.00000
      4      11.4430      1.98985
      5      14.1595      0.00000
      6      15.5378      0.00000
      7      15.5378      0.00000
      8      18.4125      0.00000

 k-point     9 :       0.1667    0.0833    0.0000
  band No.  band energies     occupation 
      1      -3.6080      2.00000
      2       9.5416      2.00000
      3      10.6400      2.00000
      4      11.2804      1.99998
      5      14.2524      0.00000
      6      16.1576      0.00000
      7      16.3230      0.00000
      8      17.4432      0.00000

 k-point    10 :       0.2500    0.0833    0.0000
  band No.  band energies     occupation 
      1      -3.0316      2.00000
      2       7.4489      2.00000
      3      10.2150      2.00000
      4      10.8533      2.00000
      5      14.5836      0.00000
      6      16.2264      0.00000
      7      16.6142      0.00000
      8      17.3437      0.00000

 k-point    11 :       0.3333    0.0833    0.0000
  band No.  band energies     occupation 
      1      -2.2071      2.00000
      2       5.3902      2.00000
      3       9.9662      2.00000
      4      10.3740      2.00000
      5      14.4303      0.00000
      6      16.0946      0.00000
      7      16.2058      0.00000
      8      18.4317      0.00000

 k-point    12 :       0.4167    0.0833    0.0000
  band No.  band energies     occupation 
      1      -1.1801      2.00000
      2       3.5307      2.00000
      3       9.9017      2.00000
      4       9.9454      2.00000
      5      14.2076      0.00000
      6      15.6412      0.00000
      7      15.9926      0.00000
      8      20.0420      0.00000

 k-point    13 :       0.5000    0.0833    0.0000
  band No.  band energies     occupation 
      1      -0.2062      2.00000
      2       2.1716      2.00000
      3       9.6094      2.00000
      4      10.0113      2.00000
      5      14.2162      0.00000
      6      15.2158      0.00000
      7      15.9228      0.00000
      8      20.7963      0.00000

 k-point    14 :      -0.4167    0.0833    0.0000
  band No.  band energies     occupation 
      1      -0.4777      2.00000
      2       2.5210      2.00000
      3       9.4017      2.00000
      4      10.2716      2.00000
      5      14.5025      0.00000
      6      15.0297      0.00000
      7      15.8949      0.00000
      8      20.8817      0.00000

 k-point    15 :      -0.3333    0.0833    0.0000
  band No.  band energies     occupation 
      1      -1.5395      2.00000
      2       4.1210      2.00000
      3       9.3541      2.00000
      4      10.6495      2.00000
      5      15.0242      0.00000
      6      15.1058      0.00000
      7      15.9126      0.00000
      8      20.1079      0.00000

[...]
      8      21.9642      0.00000

 k-point    37 :       0.5000    0.3333    0.0000
  band No.  band energies     occupation 
      1       0.5553      2.00000
      2       4.0158      2.00000
      3       6.0552      2.00000
      4       8.0793      2.00000
      5      11.7876      0.00041
      6      14.2377      0.00000
      7      20.7454      0.00000
      8      22.0848      0.00000

 k-point    38 :      -0.4167    0.3333    0.0000
  band No.  band energies     occupation 
      1       1.5000      2.00000
      2       3.0870      2.00000
      3       5.0688      2.00000
      4       8.3228      2.00000
      5      12.0502      0.00000
      6      16.2017      0.00000
      7      20.2182      0.00000
      8      21.9520      0.00000

 k-point    39 :      -0.3333    0.3333    0.0000
  band No.  band energies     occupation 
      1       1.0920      2.00000
      2       3.4872      2.00000
      3       4.7303      2.00000
      4       8.7721      2.00000
      5      12.5705      0.00000
      6      18.0446      0.00000
      7      19.7768      0.00000
      8      19.9786      0.00000

 k-point    40 :       0.4167    0.4167    0.0000
  band No.  band energies     occupation 
      1       0.2746      2.00000
      2       4.1434      2.00000
      3       7.7912      2.00000
      4       7.7912      2.00000
      5      11.2775      1.99999
      6      11.6358      0.16161
      7      23.2584      0.00000
      8      23.2584      0.00000

 k-point    41 :       0.5000    0.4167    0.0000
  band No.  band energies     occupation 
      1       1.2211      2.00000
      2       3.1378      2.00000
      3       6.9353      2.00000
      4       7.7491      2.00000
      5      11.3777      1.99925
      6      12.2463      0.00000
      7      23.0855      0.00000
      8      23.7497      0.00000

 k-point    42 :      -0.4167    0.4167    0.0000
  band No.  band energies     occupation 
      1       2.1314      2.00000
      2       2.4493      2.00000
      3       5.6464      2.00000
      4       7.9289      2.00000
      5      11.5841      0.82069
      6      14.0666      0.00000
      7      22.3121      0.00000
      8      22.9865      0.00000

 k-point    43 :       0.5000    0.5000    0.0000
  band No.  band energies     occupation 
      1       2.0995      2.00000
      2       2.0995      2.00000
      3       7.6376      2.00000
      4       7.6376      2.00000
      5      11.2463      2.00000
      6      11.2463      2.00000
      7      24.5290      0.00000
      8      24.5290      0.00000

 k-point    44 :       0.2500    0.1667    0.0833
  band No.  band energies     occupation 
      1      -3.2071      2.00000
      2       8.7482      2.00000
      3       9.2773      2.00000
      4      11.1127      2.00000
      5      14.2660      0.00000
      6      16.3856      0.00000
      7      16.8935      0.00000
      8      17.0376      0.00000

 k-point    45 :       0.3333    0.1667    0.0833
  band No.  band energies     occupation 
      1      -2.5476      2.00000
      2       6.8924      2.00000
      3       8.6954      2.00000
      4      10.6620      2.00000
      5      14.5910      0.00000
      6      16.0714      0.00000
      7      16.9391      0.00000
      8      17.5619      0.00000

 k-point    46 :       0.4167    0.1667    0.0833
  band No.  band energies     occupation 
      1      -1.6500      2.00000
      2       4.9248      2.00000
      3       8.4763      2.00000
      4      10.0959      2.00000
      5      14.4688      0.00000
      6      15.8029      0.00000
      7      17.2479      0.00000
      8      18.2988      0.00000

 k-point    47 :       0.5000    0.1667    0.0833
  band No.  band energies     occupation 
      1      -0.5876      2.00000
      2       3.1892      2.00000
      3       8.4273      2.00000
      4       9.6323      2.00000
      5      14.3566      0.00000
      6      15.3487      0.00000
      7      17.3024      0.00000
      8      19.9846      0.00000

 k-point    48 :      -0.4167    0.1667    0.0833
  band No.  band energies     occupation 
      1       0.1360      2.00000
      2       2.2373      2.00000
      3       8.4419      2.00000
      4       9.4407      2.00000
      5      14.3477      0.00000
      6      15.1394      0.00000
      7      17.2985      0.00000
      8      21.7388      0.00000

 k-point    49 :       0.3333    0.2500    0.0833
  band No.  band energies     occupation 
      1      -2.3233      2.00000
      2       7.4713      2.00000
      3       8.2487      2.00000
      4       9.5907      2.00000
      5      13.4114      0.00000
      6      14.6250      0.00000
      7      18.1275      0.00000
      8      19.0959      0.00000

 k-point    50 :       0.4167    0.2500    0.0833
  band No.  band energies     occupation 
      1      -1.5052      2.00000
      2       5.8142      2.00000
      3       7.6633      2.00000
      4       9.0020      2.00000
      5      13.6244      0.00000
      6      15.1981      0.00000
      7      17.7152      0.00000
      8      19.6126      0.00000

 k-point    51 :       0.5000    0.2500    0.0833
  band No.  band energies     occupation 
      1      -0.4853      2.00000
      2       4.0645      2.00000
      3       7.3409      2.00000
      4       8.5653      2.00000
      5      13.6046      0.00000
      6      16.3449      0.00000
      7      17.5300      0.00000
      8      19.8162      0.00000

 k-point    52 :      -0.4167    0.2500    0.0833
  band No.  band energies     occupation 
      1       0.4865      2.00000
      2       2.7449      2.00000
      3       7.0067      2.00000
      4       8.5349      2.00000
      5      13.7822      0.00000
      6      16.2931      0.00000
      7      18.4311      0.00000
      8      20.4616      0.00000

 k-point    53 :      -0.3333    0.2500    0.0833
  band No.  band energies     occupation 
      1       0.2043      2.00000
      2       3.1066      2.00000
      3       6.7383      2.00000
      4       8.8599      2.00000
      5      14.1807      0.00000
      6      16.0366      0.00000
      7      18.6132      0.00000
      8      20.2037      0.00000

 k-point    54 :      -0.2500    0.2500    0.0833
  band No.  band energies     occupation 
      1      -0.8525      2.00000
      2       4.6569      2.00000
      3       6.6567      2.00000
      4       9.4225      2.00000
      5      14.7525      0.00000
      6      15.9078      0.00000
      7      17.6693      0.00000
      8      19.1577      0.00000

 k-point    55 :      -0.1667    0.2500    0.0833
  band No.  band energies     occupation 
      1      -1.8115      2.00000
      2       6.2665      2.00000
      3       7.0314      2.00000
      4      10.1046      2.00000
      5      15.4081      0.00000
      6      15.4558      0.00000
      7      16.8145      0.00000
      8      18.5583      0.00000

 k-point    56 :       0.4167    0.3333    0.0833
  band No.  band energies     occupation 
      1      -1.1053      2.00000
      2       6.0129      2.00000
      3       7.4941      2.00000
      4       8.1151      2.00000
      5      12.7328      0.00000
      6      13.3447      0.00000
      7      19.5899      0.00000
      8      21.1832      0.00000

 k-point    57 :       0.5000    0.3333    0.0833
  band No.  band energies     occupation 
      1      -0.1501      2.00000
      2       4.7371      2.00000
      3       6.5599      2.00000
      4       7.7220      2.00000
      5      12.9167      0.00000
      6      14.5160      0.00000
      7      19.0673      0.00000
      8      21.6538      0.00000

 k-point    58 :      -0.4167    0.3333    0.0833
  band No.  band energies     occupation 
      1       0.9009      2.00000
      2       3.4334      2.00000
      3       5.7655      2.00000
      4       7.7714      2.00000
      5      13.0775      0.00000
      6      16.2937      0.00000
      7      18.6173      0.00000
      8      21.5334      0.00000

 k-point    59 :      -0.3333    0.3333    0.0833
  band No.  band energies     occupation 
      1       1.1224      2.00000
      2       3.2071      2.00000
      3       5.2620      2.00000
      4       8.1176      2.00000
      5      13.4697      0.00000
      6      17.4562      0.00000
      7      18.7750      0.00000
      8      20.2363      0.00000

 k-point    60 :      -0.2500    0.3333    0.0833
  band No.  band energies     occupation 
      1       0.1430      2.00000
      2       4.2783      2.00000
      3       5.2912      2.00000
      4       8.6937      2.00000
      5      14.0705      0.00000
      6      17.2323      0.00000
      7      17.9863      0.00000
      8      19.9905      0.00000

 k-point    61 :       0.5000    0.4167    0.0833
  band No.  band energies     occupation 
      1       0.4220      2.00000
      2       4.1588      2.00000
      3       7.0552      2.00000
      4       7.2676      2.00000
      5      12.3350      0.00000
      6      12.5902      0.00000
      7      21.2362      0.00000
      8      23.0991      0.00000

 k-point    62 :      -0.4167    0.4167    0.0833
  band No.  band energies     occupation 
      1       1.4632      2.00000
      2       3.2313      2.00000
      3       5.8127      2.00000
      4       7.2424      2.00000
      5      12.5566      0.00000
      6      14.1787      0.00000
      7      20.7270      0.00000
      8      22.4441      0.00000

 k-point    63 :      -0.3333    0.4167    0.0833
  band No.  band energies     occupation 
      1       1.9565      2.00000
      2       2.9080      2.00000
      3       4.8820      2.00000
      4       7.5624      2.00000
      5      12.9015      0.00000
      6      16.2004      0.00000
      7      20.2283      0.00000
      8      20.3765      0.00000

 k-point    64 :      -0.4167    0.5000    0.0833
  band No.  band energies     occupation 
      1       2.2111      2.00000
      2       2.2111      2.00000
      3       6.9621      2.00000
      4       6.9621      2.00000
      5      12.2730      0.00000
      6      12.2730      0.00000
      7      22.9950      0.00000
      8      22.9950      0.00000

 k-point    65 :       0.5000    0.3333    0.1667
  band No.  band energies     occupation 
      1      -0.6231      2.00000
      2       5.2116      2.00000
      3       6.2846      2.00000
      4       8.2488      2.00000
      5      14.8380      0.00000
      6      14.9870      0.00000
      7      17.2575      0.00000
      8      20.7680      0.00000

 k-point    66 :      -0.4167    0.3333    0.1667
  band No.  band energies     occupation 
      1       0.4248      2.00000
      2       3.9002      2.00000
      3       5.9169      2.00000
      4       7.6204      2.00000
      5      14.8504      0.00000
      6      15.9634      0.00000
      7      17.4790      0.00000
      8      20.9655      0.00000

 k-point    67 :      -0.3333    0.3333    0.1667
  band No.  band energies     occupation 
      1       1.1554      2.00000
      2       3.0064      2.00000
      3       5.8919      2.00000
      4       7.3727      2.00000
      5      14.8485      0.00000
      6      16.0287      0.00000
      7      18.5918      0.00000
      8      20.1738      0.00000

 k-point    68 :      -0.4167    0.4167    0.1667
  band No.  band energies     occupation 
      1       0.8429      2.00000
      2       4.0282      2.00000
      3       5.8973      2.00000
      4       6.6914      2.00000
      5      14.4477      0.00000
      6      14.5338      0.00000
      7      18.5573      0.00000
      8      21.8604      0.00000

 k-point    69 :      -0.3333    0.4167    0.1667
  band No.  band energies     occupation 
      1       1.8062      2.00000
      2       3.2029      2.00000
      3       5.2603      2.00000
      4       6.4764      2.00000
      5      14.6858      0.00000
      6      16.2269      0.00000
      7      18.2679      0.00000
      8      19.9028      0.00000

 k-point    70 :      -0.2500    0.4167    0.1667
  band No.  band energies     occupation 
      1       1.4428      2.00000
      2       3.5213      2.00000
      3       5.0471      2.00000
      4       6.8730      2.00000
      5      15.0215      0.00000
      6      16.7055      0.00000
      7      17.8371      0.00000
      8      19.6272      0.00000

 k-point    71 :      -0.3333    0.5000    0.1667
  band No.  band energies     occupation 
      1       2.4818      2.00000
      2       2.4818      2.00000
      3       5.9601      2.00000
      4       5.9601      2.00000
      5      14.3411      0.00000
      6      14.3411      0.00000
      7      20.2551      0.00000
      8      20.2551      0.00000

 k-point    72 :      -0.2500    0.5000    0.2500
  band No.  band energies     occupation 
      1       2.6555      2.00000
      2       2.6555      2.00000
      3       5.5099      2.00000
      4       5.5099      2.00000
      5      16.0611      0.00000
      6      16.0611      0.00000
      7      18.2962      0.00000
      8      18.2962      0.00000


--------------------------------------------------------------------------------------------------------


 soft charge-density along one line, spin component           1
         0         1         2         3         4         5         6         7         8         9
 total charge-density along one line
 
 pseudopotential strength for first ion, spin component:           1
 17.814  -0.007   0.000  -0.000   0.000  -0.000   0.000  -0.000
 -0.007   0.006  -0.000   0.000  -0.000   0.000  -0.000   0.000
  0.000  -0.000   4.130  -0.000  -0.000  -0.010   0.000   0.000
 -0.000   0.000  -0.000   4.130  -0.000   0.000  -0.010   0.000
  0.000  -0.000  -0.000  -0.000   4.130   0.000   0.000  -0.010
 -0.000   0.000  -0.010   0.000   0.000   0.005  -0.000  -0.000
  0.000  -0.000   0.000  -0.010   0.000  -0.000   0.005  -0.000
 -0.000   0.000   0.000   0.000  -0.010  -0.000  -0.000   0.005
 total augmentation occupancy for first ion, spin component:           1
  1.561  -1.528   0.000   0.000   0.000   0.000   0.000   0.000
 -1.528   2.237  -0.000  -0.000  -0.000  -0.000  -0.000   0.000
  0.000   0.000   1.442  -0.000   0.000  -1.008   0.000   0.000
  0.000   0.000  -0.000   1.442   0.000   0.000  -1.008   0.000
  0.000   0.000   0.000   0.000   1.442   0.000   0.000  -1.008
  0.000   0.000  -1.008   0.000   0.000   0.856   0.000   0.000
  0.000   0.000   0.000  -1.008   0.000   0.000   0.856   0.000
  0.000  -0.000   0.000   0.000  -1.008   0.000   0.000   0.856


------------------------ aborting loop because EDIFF is reached ----------------------------------------


    CHARGE:  cpu time    0.01: real time    0.01
    FORLOC:  cpu time    0.00: real time    0.00
    FORNL :  cpu time    0.02: real time    0.02
    STRESS:  cpu time    0.16: real time    0.16
    FORCOR:  cpu time    0.01: real time    0.01
    FORHAR:  cpu time    0.00: real time    0.00
    MIXING:  cpu time    0.00: real time    0.00
    OFIELD:  cpu time    0.00: real time    0.00

  FORCE on cell =-STRESS in cart. coord.  units (eV):
  Direction    XX          YY          ZZ          XY          YZ          ZX
  --------------------------------------------------------------------------------------
  Alpha Z     5.46620     5.46620     5.46620
  Ewald     -89.56871   -89.56871   -89.56871     0.00000     0.00000     0.00000
  Hartree     3.13000     3.13000     3.13000     0.00000     0.00000     0.00000
  E(xc)     -28.83089   -28.83089   -28.83089     0.00000     0.00000     0.00000
  Local     -23.83626   -23.83626   -23.83626     0.00001     0.00001     0.00001
  n-local    95.24179    97.01633    90.43465     3.41139    -2.30679     1.03663
  augment   -12.76377   -12.76377   -12.76377    -0.00001    -0.00001    -0.00001
  Kinetic    74.04850    65.55894    73.59983     3.72072     0.48092     1.27641
  Fock        0.00000     0.00000     0.00000     0.00000     0.00000     0.00000
  -------------------------------------------------------------------------------------
  Total      18.89658    18.89658    18.89658    -0.00000    -0.00000     0.00000
  in kB    1229.03920  1229.03920  1229.03920    -0.00000    -0.00000     0.00000
  external pressure =     1229.04 kB  Pullay stress =        0.00 kB


 VOLUME and BASIS-vectors are now :
 -----------------------------------------------------------------------------
  energy-cutoff  :      600.00
  volume of cell :       24.63
      direct lattice vectors                 reciprocal lattice vectors
     0.000000000  2.309401077  2.309401077    -0.216506351  0.216506351  0.216506351
     2.309401077  0.000000000  2.309401077     0.216506351 -0.216506351  0.216506351
     2.309401077  2.309401077  0.000000000     0.216506351  0.216506351 -0.216506351

  length of vectors
     3.265986324  3.265986324  3.265986324     0.375000000  0.375000000  0.375000000


 FORCES acting on ions
    electron-ion (+dipol)            ewald-force                    non-local-force                 convergence-correction
 -----------------------------------------------------------------------------------------------
   -.245E-06 -.245E-06 -.278E-06   -.444E-14 -.730E-14 -.955E-14   -.486E-16 -.486E-16 -.347E-17   -.100E-14 -.198E-14 -.514E-15
   0.245E-06 0.245E-06 0.278E-06   0.423E-14 0.722E-14 0.968E-14   0.494E-16 0.408E-16 0.694E-17   -.117E-14 0.156E-14 0.904E-15
 -----------------------------------------------------------------------------------------------
   0.237E-13 0.167E-13 0.130E-14   -.214E-15 -.803E-16 0.131E-15   0.867E-18 -.781E-17 0.347E-17   -.217E-14 -.417E-15 0.390E-15
 
 
 POSITION                                       TOTAL-FORCE (eV/Angst)
 -----------------------------------------------------------------------------------
      0.00000      0.00000      0.00000         0.000000      0.000000      0.000000
      1.15470      1.15470      1.15470        -0.000000     -0.000000     -0.000000
 -----------------------------------------------------------------------------------
    total drift:                                0.000000      0.000000      0.000000


--------------------------------------------------------------------------------------------------------



  FREE ENERGIE OF THE ION-ELECTRON SYSTEM (eV)
  ---------------------------------------------------
  free  energy   TOTEN  =        -6.71009388 eV

  energy  without entropy=       -6.70929243  energy(sigma->0) =       -6.70969316
 


--------------------------------------------------------------------------------------------------------


    POTLOK:  cpu time    0.01: real time    0.01


--------------------------------------------------------------------------------------------------------


 writing wavefunctions
     LOOP+:  cpu time    3.86: real time    4.07
    4ORBIT:  cpu time    0.00: real time    0.00

 total amount of memory used by VASP on root node    37812. kBytes
========================================================================

   base      :      30000. kBytes
   nonl-proj :       4046. kBytes
   fftplans  :        595. kBytes
   grid      :       1120. kBytes
   one-center:          6. kBytes
   wavefun   :       2045. kBytes
 
  
  
 General timing and accounting informations for this job:
 ========================================================
  
                  Total CPU time used (sec):        4.100
                            User time (sec):        3.996
                          System time (sec):        0.104
                         Elapsed time (sec):        4.490
  
                   Maximum memory used (kb):       41908.
                   Average memory used (kb):           0.
  
                          Minor page faults:         5354
                          Major page faults:            6
                 Voluntary context switches:          515
