 vasp.5.3.5 31Mar14 (build Jun 01 2017 17:55:53) complex                        
  
 executed on             LinuxIFC date 2020.11.10  15:17:08
 running on    4 total cores
 distrk:  each k-point on    4 cores,    1 groups
 distr:  one band on NCORES_PER_BAND=   1 cores,    4 groups


--------------------------------------------------------------------------------------------------------


 INCAR:
 POTCAR:   PAW_PBE Si 05Jan2001                   
 POTCAR:   PAW_PBE Si 05Jan2001                   
   VRHFIN =Si: s2p2                                                             
   LEXCH  = PE                                                                  
   EATOM  =   103.0669 eV,    7.5752 Ry                                         
                                                                                
   TITEL  = PAW_PBE Si 05Jan2001                                                
   LULTRA =        F    use ultrasoft PP ?                                      
   IUNSCR =        1    unscreen: 0-lin 1-nonlin 2-no                           
   RPACOR =    1.500    partial core radius                                     
   POMASS =   28.085; ZVAL   =    4.000    mass and valenz                      
   RCORE  =    1.900    outmost cutoff radius                                   
   RWIGS  =    2.480; RWIGS  =    1.312    wigner-seitz radius (au A)           
   ENMAX  =  245.345; ENMIN  =  184.009 eV                                      
   ICORE  =        2    local potential                                         
   LCOR   =        T    correct aug charges                                     
   LPAW   =        T    paw PP                                                  
   EAUG   =  322.069                                                            
   DEXC   =    -.007                                                            
   RMAX   =    2.944    core radius for proj-oper                               
   RAUG   =    1.300    factor for augmentation sphere                          
   RDEP   =    1.993    radius for radial grids                                 
   QCUT   =   -4.246; QGAM   =    8.493    optimization parameters              
                                                                                
   Description                                                                  
     l     E      TYP  RCUT    TYP  RCUT                                        
     0   .000     23  1.900                                                     
     0   .000     23  1.900                                                     
     1   .000     23  1.900                                                     
     1   .000     23  1.900                                                     
     2   .000      7  1.900                                                     
  local pseudopotential read in
  partial core-charges read in
  atomic valenz-charges read in
  non local Contribution for L=           0  read in
    real space projection operators read in
  non local Contribution for L=           0  read in
    real space projection operators read in
  non local Contribution for L=           1  read in
    real space projection operators read in
  non local Contribution for L=           1  read in
    real space projection operators read in
    PAW grid and wavefunctions read in
 
   number of l-projection  operators is LMAX  =           4
   number of lm-projection operators is LMMAX =           8
 
 PAW_PBE Si 05Jan2001                   :
 energy of atom  1       EATOM= -103.0669
 kinetic energy error for atom=    0.0003 (will be added to EATOM!!)
 
 
 POSCAR: Si
  positions in direct lattice
  velocities in cartesian coordinates
  No initial velocities read in
 exchange correlation table for  LEXCH =        8
   RHO(1)=    0.500       N(1)  =     2000
   RHO(2)=  100.500       N(2)  =     4000
 


--------------------------------------------------------------------------------------------------------


 ion  position               nearest neighbor table
   1  0.000  0.000  0.000-   2 2.15   2 2.15   2 2.15   2 2.15
   2  0.250  0.250  0.250-   1 2.15   1 2.15   1 2.15   1 2.15
 
  LATTYP: Found a face centered cubic cell.
 ALAT       =     4.9652123150
  
  Lattice vectors:
  
 A1 = (   0.0000000000,   2.4826061575,   2.4826061575)
 A2 = (   2.4826061575,   0.0000000000,   2.4826061575)
 A3 = (   2.4826061575,   2.4826061575,   0.0000000000)


Analysis of symmetry for initial positions (statically):
=====================================================================
 Subroutine PRICEL returns:
 Original cell was already a primitive cell.
 

 Routine SETGRP: Setting up the symmetry group for a 
 face centered cubic supercell.


 Subroutine GETGRP returns: Found 48 space group operations
 (whereof 24 operations were pure point group operations)
 out of a pool of 48 trial point group operations.


The static configuration has the point symmetry T_d .
 The point group associated with its full space group is O_h .


Analysis of symmetry for dynamics (positions and initial velocities):
=====================================================================
 Subroutine PRICEL returns:
 Original cell was already a primitive cell.
 

 Routine SETGRP: Setting up the symmetry group for a 
 face centered cubic supercell.


 Subroutine GETGRP returns: Found 48 space group operations
 (whereof 24 operations were pure point group operations)
 out of a pool of 48 trial point group operations.


The dynamic configuration has the point symmetry T_d .
 The point group associated with its full space group is O_h .


Analysis of constrained symmetry for selective dynamics:
=====================================================================
 Subroutine PRICEL returns:
 Original cell was already a primitive cell.
 

 Routine SETGRP: Setting up the symmetry group for a 
 face centered cubic supercell.


 Subroutine GETGRP returns: Found 48 space group operations
 (whereof 24 operations were pure point group operations)
 out of a pool of 48 trial point group operations.


The constrained configuration has the point symmetry T_d .
 The point group associated with its full space group is O_h .
 
 
 KPOINTS: Gamma centered Monkhorst-Pack           

Automatic generation of k-mesh.
Space group operators:
 irot       det(A)        alpha          n_x          n_y          n_z        tau_x        tau_y        tau_z
    1     1.000000     0.000001     1.000000     0.000000     0.000000     0.000000     0.000000     0.000000
    2     1.000000   120.000000    -0.577350    -0.577350    -0.577350     0.000000     0.000000     0.000000
    3     1.000000   120.000000     0.577350     0.577350     0.577350     0.000000     0.000000     0.000000
    4    -1.000000    90.000000     0.000000     0.000000    -1.000000     0.000000     0.000000     0.000000
    5    -1.000000   180.000000     0.000000     0.707107     0.707107     0.000000     0.000000     0.000000
    6    -1.000000    90.000000     0.000000     1.000000     0.000000     0.000000     0.000000     0.000000
    7     1.000000   180.000000     0.000000     0.000000     1.000000     0.000000     0.000000     0.000000
    8     1.000000   120.000000    -0.577350     0.577350     0.577350     0.000000     0.000000     0.000000
    9     1.000000   120.000000    -0.577350     0.577350    -0.577350     0.000000     0.000000     0.000000
   10    -1.000000    90.000000     0.000000     0.000000     1.000000     0.000000     0.000000     0.000000
   11    -1.000000    90.000000    -1.000000     0.000000     0.000000     0.000000     0.000000     0.000000
   12    -1.000000   180.000000     0.707107     0.000000     0.707107     0.000000     0.000000     0.000000
   13     1.000000   120.000000     0.577350    -0.577350     0.577350     0.000000     0.000000     0.000000
   14     1.000000   120.000000    -0.577350    -0.577350     0.577350     0.000000     0.000000     0.000000
   15     1.000000   180.000000     1.000000     0.000000     0.000000     0.000000     0.000000     0.000000
   16    -1.000000    90.000000     0.000000    -1.000000     0.000000     0.000000     0.000000     0.000000
   17    -1.000000   180.000000     0.707107     0.707107     0.000000     0.000000     0.000000     0.000000
   18    -1.000000    90.000000     1.000000     0.000000     0.000000     0.000000     0.000000     0.000000
   19     1.000000   120.000000     0.577350    -0.577350    -0.577350     0.000000     0.000000     0.000000
   20     1.000000   180.000000     0.000000     1.000000     0.000000     0.000000     0.000000     0.000000
   21     1.000000   120.000000     0.577350     0.577350    -0.577350     0.000000     0.000000     0.000000
   22    -1.000000   180.000000     0.000000    -0.707107     0.707107     0.000000     0.000000     0.000000
   23    -1.000000   180.000000     0.707107    -0.707107     0.000000     0.000000     0.000000     0.000000
   24    -1.000000   180.000000     0.707107     0.000000    -0.707107     0.000000     0.000000     0.000000
   25    -1.000000     0.000001     1.000000     0.000000     0.000000     0.250000     0.250000     0.250000
   26    -1.000000   120.000000    -0.577350    -0.577350    -0.577350     0.250000     0.250000     0.250000
   27    -1.000000   120.000000     0.577350     0.577350     0.577350     0.250000     0.250000     0.250000
   28     1.000000    90.000000     0.000000     0.000000    -1.000000     0.250000     0.250000     0.250000
   29     1.000000   180.000000     0.000000     0.707107     0.707107     0.250000     0.250000     0.250000
   30     1.000000    90.000000     0.000000     1.000000     0.000000     0.250000     0.250000     0.250000
   31    -1.000000   180.000000     0.000000     0.000000     1.000000     0.250000     0.250000     0.250000
   32    -1.000000   120.000000    -0.577350     0.577350     0.577350     0.250000     0.250000     0.250000
   33    -1.000000   120.000000    -0.577350     0.577350    -0.577350     0.250000     0.250000     0.250000
   34     1.000000    90.000000     0.000000     0.000000     1.000000     0.250000     0.250000     0.250000
   35     1.000000    90.000000    -1.000000     0.000000     0.000000     0.250000     0.250000     0.250000
   36     1.000000   180.000000     0.707107     0.000000     0.707107     0.250000     0.250000     0.250000
   37    -1.000000   120.000000     0.577350    -0.577350     0.577350     0.250000     0.250000     0.250000
   38    -1.000000   120.000000    -0.577350    -0.577350     0.577350     0.250000     0.250000     0.250000
   39    -1.000000   180.000000     1.000000     0.000000     0.000000     0.250000     0.250000     0.250000
   40     1.000000    90.000000     0.000000    -1.000000     0.000000     0.250000     0.250000     0.250000
   41     1.000000   180.000000     0.707107     0.707107     0.000000     0.250000     0.250000     0.250000
   42     1.000000    90.000000     1.000000     0.000000     0.000000     0.250000     0.250000     0.250000
   43    -1.000000   120.000000     0.577350    -0.577350    -0.577350     0.250000     0.250000     0.250000
   44    -1.000000   180.000000     0.000000     1.000000     0.000000     0.250000     0.250000     0.250000
   45    -1.000000   120.000000     0.577350     0.577350    -0.577350     0.250000     0.250000     0.250000
   46     1.000000   180.000000     0.000000    -0.707107     0.707107     0.250000     0.250000     0.250000
   47     1.000000   180.000000     0.707107    -0.707107     0.000000     0.250000     0.250000     0.250000
   48     1.000000   180.000000     0.707107     0.000000    -0.707107     0.250000     0.250000     0.250000
 
 Subroutine IBZKPT returns following result:
 ===========================================
 
 Found     72 irreducible k-points:
 
 Following reciprocal coordinates:
            Coordinates               Weight
  0.000000  0.000000  0.000000      1.000000
  0.083333  0.000000  0.000000      8.000000
  0.166667  0.000000  0.000000      8.000000
  0.250000  0.000000  0.000000      8.000000
  0.333333  0.000000  0.000000      8.000000
  0.416667  0.000000  0.000000      8.000000
  0.500000  0.000000  0.000000      4.000000
  0.083333  0.083333  0.000000      6.000000
  0.166667  0.083333  0.000000     24.000000
  0.250000  0.083333  0.000000     24.000000
  0.333333  0.083333  0.000000     24.000000
  0.416667  0.083333  0.000000     24.000000
  0.500000  0.083333  0.000000     24.000000
 -0.416667  0.083333  0.000000     24.000000
 -0.333333  0.083333  0.000000     24.000000
 -0.250000  0.083333  0.000000     24.000000
 -0.166667  0.083333  0.000000     24.000000
 -0.083333  0.083333  0.000000     12.000000
  0.166667  0.166667  0.000000      6.000000
  0.250000  0.166667  0.000000     24.000000
  0.333333  0.166667  0.000000     24.000000
  0.416667  0.166667  0.000000     24.000000
  0.500000  0.166667  0.000000     24.000000
 -0.416667  0.166667  0.000000     24.000000
 -0.333333  0.166667  0.000000     24.000000
 -0.250000  0.166667  0.000000     24.000000
 -0.166667  0.166667  0.000000     12.000000
  0.250000  0.250000  0.000000      6.000000
  0.333333  0.250000  0.000000     24.000000
  0.416667  0.250000  0.000000     24.000000
  0.500000  0.250000  0.000000     24.000000
 -0.416667  0.250000  0.000000     24.000000
 -0.333333  0.250000  0.000000     24.000000
 -0.250000  0.250000  0.000000     12.000000
  0.333333  0.333333  0.000000      6.000000
  0.416667  0.333333  0.000000     24.000000
  0.500000  0.333333  0.000000     24.000000
 -0.416667  0.333333  0.000000     24.000000
 -0.333333  0.333333  0.000000     12.000000
  0.416667  0.416667  0.000000      6.000000
  0.500000  0.416667  0.000000     24.000000
 -0.416667  0.416667  0.000000     12.000000
  0.500000  0.500000  0.000000      3.000000
  0.250000  0.166667  0.083333     24.000000
  0.333333  0.166667  0.083333     48.000000
  0.416667  0.166667  0.083333     48.000000
  0.500000  0.166667  0.083333     48.000000
 -0.416667  0.166667  0.083333     24.000000
  0.333333  0.250000  0.083333     24.000000
  0.416667  0.250000  0.083333     48.000000
  0.500000  0.250000  0.083333     48.000000
 -0.416667  0.250000  0.083333     48.000000
 -0.333333  0.250000  0.083333     48.000000
 -0.250000  0.250000  0.083333     48.000000
 -0.166667  0.250000  0.083333     24.000000
  0.416667  0.333333  0.083333     24.000000
  0.500000  0.333333  0.083333     48.000000
 -0.416667  0.333333  0.083333     48.000000
 -0.333333  0.333333  0.083333     48.000000
 -0.250000  0.333333  0.083333     24.000000
  0.500000  0.416667  0.083333     24.000000
 -0.416667  0.416667  0.083333     48.000000
 -0.333333  0.416667  0.083333     24.000000
 -0.416667  0.500000  0.083333     12.000000
  0.500000  0.333333  0.166667     24.000000
 -0.416667  0.333333  0.166667     48.000000
 -0.333333  0.333333  0.166667     24.000000
 -0.416667  0.416667  0.166667     24.000000
 -0.333333  0.416667  0.166667     48.000000
 -0.250000  0.416667  0.166667     24.000000
 -0.333333  0.500000  0.166667     12.000000
 -0.250000  0.500000  0.250000      6.000000
 
 Following cartesian coordinates:
            Coordinates               Weight
  0.000000  0.000000  0.000000      1.000000
 -0.083333  0.083333  0.083333      8.000000
 -0.166667  0.166667  0.166667      8.000000
 -0.250000  0.250000  0.250000      8.000000
 -0.333333  0.333333  0.333333      8.000000
 -0.416667  0.416667  0.416667      8.000000
 -0.500000  0.500000  0.500000      4.000000
  0.000000  0.000000  0.166667      6.000000
 -0.083333  0.083333  0.250000     24.000000
 -0.166667  0.166667  0.333333     24.000000
 -0.250000  0.250000  0.416667     24.000000
 -0.333333  0.333333  0.500000     24.000000
 -0.416667  0.416667  0.583333     24.000000
  0.500000 -0.500000 -0.333333     24.000000
  0.416667 -0.416667 -0.250000     24.000000
  0.333333 -0.333333 -0.166667     24.000000
  0.250000 -0.250000 -0.083333     24.000000
  0.166667 -0.166667  0.000000     12.000000
  0.000000  0.000000  0.333333      6.000000
 -0.083333  0.083333  0.416667     24.000000
 -0.166667  0.166667  0.500000     24.000000
 -0.250000  0.250000  0.583333     24.000000
 -0.333333  0.333333  0.666667     24.000000
  0.583333 -0.583333 -0.250000     24.000000
  0.500000 -0.500000 -0.166667     24.000000
  0.416667 -0.416667 -0.083333     24.000000
  0.333333 -0.333333  0.000000     12.000000
  0.000000  0.000000  0.500000      6.000000
 -0.083333  0.083333  0.583333     24.000000
 -0.166667  0.166667  0.666667     24.000000
 -0.250000  0.250000  0.750000     24.000000
  0.666667 -0.666667 -0.166667     24.000000
  0.583333 -0.583333 -0.083333     24.000000
  0.500000 -0.500000  0.000000     12.000000
  0.000000  0.000000  0.666667      6.000000
 -0.083333  0.083333  0.750000     24.000000
 -0.166667  0.166667  0.833333     24.000000
  0.750000 -0.750000 -0.083333     24.000000
  0.666667 -0.666667  0.000000     12.000000
  0.000000  0.000000  0.833333      6.000000
 -0.083333  0.083333  0.916667     24.000000
  0.833333 -0.833333  0.000000     12.000000
  0.000000  0.000000  1.000000      3.000000
  0.000000  0.166667  0.333333     24.000000
 -0.083333  0.250000  0.416667     48.000000
 -0.166667  0.333333  0.500000     48.000000
 -0.250000  0.416667  0.583333     48.000000
  0.666667 -0.500000 -0.333333     24.000000
  0.000000  0.166667  0.500000     24.000000
 -0.083333  0.250000  0.583333     48.000000
 -0.166667  0.333333  0.666667     48.000000
  0.750000 -0.583333 -0.250000     48.000000
  0.666667 -0.500000 -0.166667     48.000000
  0.583333 -0.416667 -0.083333     48.000000
  0.500000 -0.333333  0.000000     24.000000
 -0.000000  0.166667  0.666667     24.000000
 -0.083333  0.250000  0.750000     48.000000
  0.833333 -0.666667 -0.166667     48.000000
  0.750000 -0.583333 -0.083333     48.000000
  0.666667 -0.500000  0.000000     24.000000
  0.000000  0.166667  0.833333     24.000000
  0.916667 -0.750000 -0.083333     48.000000
  0.833333 -0.666667  0.000000     24.000000
  1.000000 -0.833333  0.000000     12.000000
  0.000000  0.333333  0.666667     24.000000
  0.916667 -0.583333 -0.250000     48.000000
  0.833333 -0.500000 -0.166667     24.000000
  1.000000 -0.666667 -0.166667     24.000000
  0.916667 -0.583333 -0.083333     48.000000
  0.833333 -0.500000  0.000000     24.000000
  1.000000 -0.666667  0.000000     12.000000
  1.000000 -0.500000  0.000000      6.000000
 


--------------------------------------------------------------------------------------------------------




 Dimension of arrays:
   k-points           NKPTS =     72   k-points in BZ     NKDIM =     72   number of bands    NBANDS=      8
   number of dos      NEDOS =    301   number of ions     NIONS =      2
   non local maximal  LDIM  =      4   non local SUM 2l+1 LMDIM =      8
   total plane-waves  NPLWV =  13824
   max r-space proj   IRMAX =      1   max aug-charges    IRDMAX=  15301
   dimension x,y,z NGX =    24 NGY =   24 NGZ =   24
   dimension x,y,z NGXF=    48 NGYF=   48 NGZF=   48
   support grid    NGXF=    48 NGYF=   48 NGZF=   48
   ions per type =               2
 NGX,Y,Z   is equivalent  to a cutoff of  11.36, 11.36, 11.36 a.u.
 NGXF,Y,Z  is equivalent  to a cutoff of  22.73, 22.73, 22.73 a.u.


 I would recommend the setting:
   dimension x,y,z NGX =    21 NGY =   21 NGZ =   21
 SYSTEM =  Si
 POSCAR =  Si

 Startparameter for this run:
   NWRITE =      2    write-flag & timer
   PREC   = normal    normal or accurate (medium, high low for compatibility)
   ISTART =      0    job   : 0-new  1-cont  2-samecut
   ICHARG =      2    charge: 1-file 2-atom 10-const
   ISPIN  =      1    spin polarized calculation?
   LNONCOLLINEAR =      F non collinear calculations
   LSORBIT =      F    spin-orbit coupling
   INIWAV =      1    electr: 0-lowe 1-rand  2-diag
   LASPH  =      F    aspherical Exc in radial PAW
   METAGGA=      F    non-selfconsistent MetaGGA calc.

 Electronic Relaxation 1
   ENCUT  =  600.0 eV  44.10 Ry    6.64 a.u.   7.01  7.01  7.01*2*pi/ulx,y,z
   ENINI  =  600.0     initial cutoff
   ENAUG  = 1200.0 eV  augmentation charge cutoff
   NELM   =    500;   NELMIN=  2; NELMDL= -5     # of ELM steps 
   EDIFF  = 0.1E-09   stopping-criterion for ELM
   LREAL  =      F    real-space projection
   NLSPLINE    = F    spline interpolate recip. space projectors
   LCOMPAT=      F    compatible to vasp.4.4
   GGA_COMPAT  = T    GGA compatible to vasp.4.4-vasp.4.6
   LMAXPAW     = -100 max onsite density
   LMAXMIX     =    2 max onsite mixed and CHGCAR
   VOSKOWN=      0    Vosko Wilk Nusair interpolation
   ROPT   =    0.00000
 Ionic relaxation
   EDIFFG = 0.1E-08   stopping-criterion for IOM
   NSW    =      0    number of steps for IOM
   NBLOCK =      1;   KBLOCK =      1    inner block; outer block 
   IBRION =     -1    ionic relax: 0-MD 1-quasi-New 2-CG
   NFREE  =      0    steps in history (QN), initial steepest desc. (CG)
   ISIF   =      2    stress and relaxation
   IWAVPR =     10    prediction:  0-non 1-charg 2-wave 3-comb
   ISYM   =      2    0-nonsym 1-usesym 2-fastsym
   LCORR  =      T    Harris-Foulkes like correction to forces

   POTIM  = 0.5000    time-step for ionic-motion
   TEIN   =    0.0    initial temperature
   TEBEG  =    0.0;   TEEND  =   0.0 temperature during run
   SMASS  =  -3.00    Nose mass-parameter (am)
   estimated Nose-frequenzy (Omega)   =  0.10E-29 period in steps =****** mass=  -0.282E-27a.u.
   SCALEE = 1.0000    scale energy and forces
   NPACO  =    256;   APACO  = 16.0  distance and # of slots for P.C.
   PSTRESS=    0.0 pullay stress

  Mass of Ions in am
   POMASS =  28.09
  Ionic Valenz
   ZVAL   =   4.00
  Atomic Wigner-Seitz radii
   RWIGS  =  -1.00
  virtual crystal weights 
   VCA    =   1.00
   NELECT =       8.0000    total number of electrons
   NUPDOWN=      -1.0000    fix difference up-down

 DOS related values:
   EMIN   =  10.00;   EMAX   =-10.00  energy-range for DOS
   EFERMI =   0.00
   ISMEAR =    -1;   SIGMA  =   0.03  broadening in eV -4-tet -1-fermi 0-gaus

 Electronic relaxation 2 (details)
   IALGO  =     38    algorithm
   LDIAG  =      T    sub-space diagonalisation (order eigenvalues)
   LSUBROT=      F    optimize rotation matrix (better conditioning)
   TURBO    =      0    0=normal 1=particle mesh
   IRESTART =      0    0=no restart 2=restart with 2 vectors
   NREBOOT  =      0    no. of reboots
   NMIN     =      0    reboot dimension
   EREF     =   0.00    reference energy to select bands
   IMIX   =      4    mixing-type and parameters
     AMIX     =   0.40;   BMIX     =  1.00
     AMIX_MAG =   1.60;   BMIX_MAG =  1.00
     AMIN     =   0.10
     WC   =   100.;   INIMIX=   1;  MIXPRE=   1;  MAXMIX= -45

 Intra band minimization:
   WEIMIN = 0.0000     energy-eigenvalue tresh-hold
   EBREAK =  0.31E-11  absolut break condition
   DEPER  =   0.30     relativ break condition  

   TIME   =   0.40     timestep for ELM

  volume/ion in A,a.u.               =      15.30       103.26
  Fermi-wavevector in a.u.,A,eV,Ry     =   1.046776  1.978119 14.908442  1.095740
  Thomas-Fermi vector in A             =   2.181628
 
 Write flags
   LWAVE  =      T    write WAVECAR
   LCHARG =      T    write CHGCAR
   LVTOT  =      F    write LOCPOT, total local potential
   LVHAR  =      F    write LOCPOT, Hartree potential only
   LELF   =      F    write electronic localiz. function (ELF)
   LORBIT =      0    0 simple, 1 ext, 2 COOP (PROOUT)


 Dipole corrections
   LMONO  =      F    monopole corrections only (constant potential shift)
   LDIPOL =      F    correct potential (dipole corrections)
   IDIPOL =      0    1-x, 2-y, 3-z, 4-all directions 
   EPSILON=  1.0000000 bulk dielectric constant

 Exchange correlation treatment:
   GGA     =    PE    GGA type
   LEXCH   =     8    internal setting for exchange type
   VOSKOWN=      0    Vosko Wilk Nusair interpolation
   LHFCALC =     F    Hartree Fock is set to
   LHFONE  =     F    Hartree Fock one center treatment
   AEXX    =    0.0000 exact exchange contribution

 Linear response parameters
   LEPSILON=     F    determine dielectric tensor
   LRPA    =     F    only Hartree local field effects (RPA)
   LNABLA  =     F    use nabla operator in PAW spheres
   LVEL    =     F    velocity operator in full k-point grid
   LINTERFAST=   F  fast interpolation
   KINTER  =     0    interpolate to denser k-point grid
   CSHIFT  =0.1000    complex shift for real part using Kramers Kronig
   OMEGAMAX=  -1.0    maximum frequency
   DEG_THRESHOLD= 0.2000000E-02 threshold for treating states as degnerate
   RTIME   =    0.100 relaxation time in fs

 Orbital magnetization related:
   ORBITALMAG=     F  switch on orbital magnetization
   LCHIMAG   =     F  perturbation theory with respect to B field
   DQ        =  0.001000  dq finite difference perturbation B field



--------------------------------------------------------------------------------------------------------


 Static calculation
 charge density and potential will be updated during run
 non-spin polarized calculation
 Variant of blocked Davidson
 Davidson routine will perform the subspace rotation
 perform sub-space diagonalisation
    after iterative eigenvector-optimisation
 modified Broyden-mixing scheme, WC =      100.0
 initial mixing is a Kerker type mixing with AMIX =  0.4000 and BMIX =      1.0000
 Hartree-type preconditioning will be used
 using additional bands            4
 reciprocal scheme for non local part
 use partial core corrections
 calculate Harris-corrections to forces 
   (improved forces if not selfconsistent)
 use gradient corrections 
 use of overlap-Matrix (Vanderbilt PP)
 Fermi-smearing in eV        SIGMA  =   0.03


--------------------------------------------------------------------------------------------------------


  energy-cutoff  :      600.00
  volume of cell :       30.60
      direct lattice vectors                 reciprocal lattice vectors
     0.000000000  2.482606158  2.482606158    -0.201401257  0.201401257  0.201401257
     2.482606158  0.000000000  2.482606158     0.201401257 -0.201401257  0.201401257
     2.482606158  2.482606158  0.000000000     0.201401257  0.201401257 -0.201401257

  length of vectors
     3.510935298  3.510935298  3.510935298     0.348837209  0.348837209  0.348837209


 
 k-points in units of 2pi/SCALE and weight: Gamma centered Monkhorst-Pack           
   0.00000000  0.00000000  0.00000000       0.001
  -0.08333333  0.08333333  0.08333333       0.005
  -0.16666667  0.16666667  0.16666667       0.005
  -0.25000000  0.25000000  0.25000000       0.005
  -0.33333333  0.33333333  0.33333333       0.005
  -0.41666667  0.41666667  0.41666667       0.005
  -0.50000000  0.50000000  0.50000000       0.002
   0.00000000  0.00000000  0.16666667       0.003
  -0.08333333  0.08333333  0.25000000       0.014
  -0.16666667  0.16666667  0.33333333       0.014
  -0.25000000  0.25000000  0.41666667       0.014
  -0.33333333  0.33333333  0.50000000       0.014
  -0.41666667  0.41666667  0.58333333       0.014
   0.50000000 -0.50000000 -0.33333333       0.014
   0.41666667 -0.41666667 -0.25000000       0.014
   0.33333333 -0.33333333 -0.16666667       0.014
   0.25000000 -0.25000000 -0.08333333       0.014
   0.16666667 -0.16666667  0.00000000       0.007
   0.00000000  0.00000000  0.33333333       0.003
  -0.08333333  0.08333333  0.41666667       0.014
  -0.16666667  0.16666667  0.50000000       0.014
  -0.25000000  0.25000000  0.58333333       0.014
  -0.33333333  0.33333333  0.66666667       0.014
   0.58333333 -0.58333333 -0.25000000       0.014
   0.50000000 -0.50000000 -0.16666667       0.014
   0.41666667 -0.41666667 -0.08333333       0.014
   0.33333333 -0.33333333  0.00000000       0.007
   0.00000000  0.00000000  0.50000000       0.003
  -0.08333333  0.08333333  0.58333333       0.014
  -0.16666667  0.16666667  0.66666667       0.014
  -0.25000000  0.25000000  0.75000000       0.014
   0.66666667 -0.66666667 -0.16666667       0.014
   0.58333333 -0.58333333 -0.08333333       0.014
   0.50000000 -0.50000000  0.00000000       0.007
   0.00000000  0.00000000  0.66666667       0.003
  -0.08333333  0.08333333  0.75000000       0.014
  -0.16666667  0.16666667  0.83333333       0.014
   0.75000000 -0.75000000 -0.08333333       0.014
   0.66666667 -0.66666667  0.00000000       0.007
   0.00000000  0.00000000  0.83333333       0.003
  -0.08333333  0.08333333  0.91666667       0.014
   0.83333333 -0.83333333  0.00000000       0.007
   0.00000000  0.00000000  1.00000000       0.002
   0.00000000  0.16666667  0.33333333       0.014
  -0.08333333  0.25000000  0.41666667       0.028
  -0.16666667  0.33333333  0.50000000       0.028
  -0.25000000  0.41666667  0.58333333       0.028
   0.66666667 -0.50000000 -0.33333333       0.014
   0.00000000  0.16666667  0.50000000       0.014
  -0.08333333  0.25000000  0.58333333       0.028
  -0.16666667  0.33333333  0.66666667       0.028
   0.75000000 -0.58333333 -0.25000000       0.028
   0.66666667 -0.50000000 -0.16666667       0.028
   0.58333333 -0.41666667 -0.08333333       0.028
   0.50000000 -0.33333333  0.00000000       0.014
  -0.00000000  0.16666667  0.66666667       0.014
  -0.08333333  0.25000000  0.75000000       0.028
   0.83333333 -0.66666667 -0.16666667       0.028
   0.75000000 -0.58333333 -0.08333333       0.028
   0.66666667 -0.50000000  0.00000000       0.014
   0.00000000  0.16666667  0.83333333       0.014
   0.91666667 -0.75000000 -0.08333333       0.028
   0.83333333 -0.66666667  0.00000000       0.014
   1.00000000 -0.83333333  0.00000000       0.007
   0.00000000  0.33333333  0.66666667       0.014
   0.91666667 -0.58333333 -0.25000000       0.028
   0.83333333 -0.50000000 -0.16666667       0.014
   1.00000000 -0.66666667 -0.16666667       0.014
   0.91666667 -0.58333333 -0.08333333       0.028
   0.83333333 -0.50000000  0.00000000       0.014
   1.00000000 -0.66666667  0.00000000       0.007
   1.00000000 -0.50000000  0.00000000       0.003
 
 k-points in reciprocal lattice and weights: Gamma centered Monkhorst-Pack           
   0.00000000  0.00000000  0.00000000       0.001
   0.08333333  0.00000000  0.00000000       0.005
   0.16666667  0.00000000  0.00000000       0.005
   0.25000000  0.00000000  0.00000000       0.005
   0.33333333  0.00000000  0.00000000       0.005
   0.41666667  0.00000000  0.00000000       0.005
   0.50000000  0.00000000  0.00000000       0.002
   0.08333333  0.08333333  0.00000000       0.003
   0.16666667  0.08333333  0.00000000       0.014
   0.25000000  0.08333333  0.00000000       0.014
   0.33333333  0.08333333  0.00000000       0.014
   0.41666667  0.08333333  0.00000000       0.014
   0.50000000  0.08333333  0.00000000       0.014
  -0.41666667  0.08333333  0.00000000       0.014
  -0.33333333  0.08333333  0.00000000       0.014
  -0.25000000  0.08333333  0.00000000       0.014
  -0.16666667  0.08333333  0.00000000       0.014
  -0.08333333  0.08333333  0.00000000       0.007
   0.16666667  0.16666667  0.00000000       0.003
   0.25000000  0.16666667  0.00000000       0.014
   0.33333333  0.16666667  0.00000000       0.014
   0.41666667  0.16666667  0.00000000       0.014
   0.50000000  0.16666667  0.00000000       0.014
  -0.41666667  0.16666667  0.00000000       0.014
  -0.33333333  0.16666667  0.00000000       0.014
  -0.25000000  0.16666667  0.00000000       0.014
  -0.16666667  0.16666667  0.00000000       0.007
   0.25000000  0.25000000  0.00000000       0.003
   0.33333333  0.25000000  0.00000000       0.014
   0.41666667  0.25000000  0.00000000       0.014
   0.50000000  0.25000000  0.00000000       0.014
  -0.41666667  0.25000000  0.00000000       0.014
  -0.33333333  0.25000000  0.00000000       0.014
  -0.25000000  0.25000000  0.00000000       0.007
   0.33333333  0.33333333  0.00000000       0.003
   0.41666667  0.33333333  0.00000000       0.014
   0.50000000  0.33333333  0.00000000       0.014
  -0.41666667  0.33333333  0.00000000       0.014
  -0.33333333  0.33333333  0.00000000       0.007
   0.41666667  0.41666667  0.00000000       0.003
   0.50000000  0.41666667  0.00000000       0.014
  -0.41666667  0.41666667  0.00000000       0.007
   0.50000000  0.50000000  0.00000000       0.002
   0.25000000  0.16666667  0.08333333       0.014
   0.33333333  0.16666667  0.08333333       0.028
   0.41666667  0.16666667  0.08333333       0.028
   0.50000000  0.16666667  0.08333333       0.028
  -0.41666667  0.16666667  0.08333333       0.014
   0.33333333  0.25000000  0.08333333       0.014
   0.41666667  0.25000000  0.08333333       0.028
   0.50000000  0.25000000  0.08333333       0.028
  -0.41666667  0.25000000  0.08333333       0.028
  -0.33333333  0.25000000  0.08333333       0.028
  -0.25000000  0.25000000  0.08333333       0.028
  -0.16666667  0.25000000  0.08333333       0.014
   0.41666667  0.33333333  0.08333333       0.014
   0.50000000  0.33333333  0.08333333       0.028
  -0.41666667  0.33333333  0.08333333       0.028
  -0.33333333  0.33333333  0.08333333       0.028
  -0.25000000  0.33333333  0.08333333       0.014
   0.50000000  0.41666667  0.08333333       0.014
  -0.41666667  0.41666667  0.08333333       0.028
  -0.33333333  0.41666667  0.08333333       0.014
  -0.41666667  0.50000000  0.08333333       0.007
   0.50000000  0.33333333  0.16666667       0.014
  -0.41666667  0.33333333  0.16666667       0.028
  -0.33333333  0.33333333  0.16666667       0.014
  -0.41666667  0.41666667  0.16666667       0.014
  -0.33333333  0.41666667  0.16666667       0.028
  -0.25000000  0.41666667  0.16666667       0.014
  -0.33333333  0.50000000  0.16666667       0.007
  -0.25000000  0.50000000  0.25000000       0.003
 
 position of ions in fractional coordinates (direct lattice) 
   0.00000000  0.00000000  0.00000000
   0.25000000  0.25000000  0.25000000
 
 position of ions in cartesian coordinates  (Angst):
   0.00000000  0.00000000  0.00000000
   1.24130308  1.24130308  1.24130308
 


--------------------------------------------------------------------------------------------------------


 k-point  1 :   0.0000 0.0000 0.0000  plane waves:     965
 k-point  2 :   0.0833 0.0000 0.0000  plane waves:     992
 k-point  3 :   0.1667 0.0000 0.0000  plane waves:     995
 k-point  4 :   0.2500 0.0000 0.0000  plane waves:    1013
 k-point  5 :   0.3333 0.0000 0.0000  plane waves:    1008
 k-point  6 :   0.4167 0.0000 0.0000  plane waves:    1023
 k-point  7 :   0.5000 0.0000 0.0000  plane waves:    1008
 k-point  8 :   0.0833 0.0833 0.0000  plane waves:    1002
 k-point  9 :   0.1667 0.0833 0.0000  plane waves:     994
 k-point 10 :   0.2500 0.0833 0.0000  plane waves:    1010
 k-point 11 :   0.3333 0.0833 0.0000  plane waves:    1020
 k-point 12 :   0.4167 0.0833 0.0000  plane waves:    1017
 k-point 13 :   0.5000 0.0833 0.0000  plane waves:    1021
 k-point 14 :  -0.4167 0.0833 0.0000  plane waves:    1026
 k-point 15 :  -0.3333 0.0833 0.0000  plane waves:    1023
 k-point 16 :  -0.2500 0.0833 0.0000  plane waves:    1016
 k-point 17 :  -0.1667 0.0833 0.0000  plane waves:    1007
 k-point 18 :  -0.0833 0.0833 0.0000  plane waves:     997
 k-point 19 :   0.1667 0.1667 0.0000  plane waves:     998
 k-point 20 :   0.2500 0.1667 0.0000  plane waves:    1006
 k-point 21 :   0.3333 0.1667 0.0000  plane waves:    1022
 k-point 22 :   0.4167 0.1667 0.0000  plane waves:    1018
 k-point 23 :   0.5000 0.1667 0.0000  plane waves:    1029
 k-point 24 :  -0.4167 0.1667 0.0000  plane waves:    1016
 k-point 25 :  -0.3333 0.1667 0.0000  plane waves:    1019
 k-point 26 :  -0.2500 0.1667 0.0000  plane waves:    1019
 k-point 27 :  -0.1667 0.1667 0.0000  plane waves:    1013
 k-point 28 :   0.2500 0.2500 0.0000  plane waves:    1022
 k-point 29 :   0.3333 0.2500 0.0000  plane waves:    1022
 k-point 30 :   0.4167 0.2500 0.0000  plane waves:    1029
 k-point 31 :   0.5000 0.2500 0.0000  plane waves:    1027
 k-point 32 :  -0.4167 0.2500 0.0000  plane waves:    1024
 k-point 33 :  -0.3333 0.2500 0.0000  plane waves:    1017
 k-point 34 :  -0.2500 0.2500 0.0000  plane waves:    1019
 k-point 35 :   0.3333 0.3333 0.0000  plane waves:    1030
 k-point 36 :   0.4167 0.3333 0.0000  plane waves:    1028
 k-point 37 :   0.5000 0.3333 0.0000  plane waves:    1026
 k-point 38 :  -0.4167 0.3333 0.0000  plane waves:    1023
 k-point 39 :  -0.3333 0.3333 0.0000  plane waves:    1031
 k-point 40 :   0.4167 0.4167 0.0000  plane waves:    1018
 k-point 41 :   0.5000 0.4167 0.0000  plane waves:    1018
 k-point 42 :  -0.4167 0.4167 0.0000  plane waves:    1025
 k-point 43 :   0.5000 0.5000 0.0000  plane waves:    1034
 k-point 44 :   0.2500 0.1667 0.0833  plane waves:    1016
 k-point 45 :   0.3333 0.1667 0.0833  plane waves:    1013
 k-point 46 :   0.4167 0.1667 0.0833  plane waves:    1020
 k-point 47 :   0.5000 0.1667 0.0833  plane waves:    1023
 k-point 48 :  -0.4167 0.1667 0.0833  plane waves:    1028
 k-point 49 :   0.3333 0.2500 0.0833  plane waves:    1019
 k-point 50 :   0.4167 0.2500 0.0833  plane waves:    1026
 k-point 51 :   0.5000 0.2500 0.0833  plane waves:    1023
 k-point 52 :  -0.4167 0.2500 0.0833  plane waves:    1027
 k-point 53 :  -0.3333 0.2500 0.0833  plane waves:    1022
 k-point 54 :  -0.2500 0.2500 0.0833  plane waves:    1024
 k-point 55 :  -0.1667 0.2500 0.0833  plane waves:    1017
 k-point 56 :   0.4167 0.3333 0.0833  plane waves:    1021
 k-point 57 :   0.5000 0.3333 0.0833  plane waves:    1027
 k-point 58 :  -0.4167 0.3333 0.0833  plane waves:    1026
 k-point 59 :  -0.3333 0.3333 0.0833  plane waves:    1021
 k-point 60 :  -0.2500 0.3333 0.0833  plane waves:    1024
 k-point 61 :   0.5000 0.4167 0.0833  plane waves:    1020
 k-point 62 :  -0.4167 0.4167 0.0833  plane waves:    1023
 k-point 63 :  -0.3333 0.4167 0.0833  plane waves:    1016
 k-point 64 :  -0.4167 0.5000 0.0833  plane waves:    1012
 k-point 65 :   0.5000 0.3333 0.1667  plane waves:    1032
 k-point 66 :  -0.4167 0.3333 0.1667  plane waves:    1029
 k-point 67 :  -0.3333 0.3333 0.1667  plane waves:    1032
 k-point 68 :  -0.4167 0.4167 0.1667  plane waves:    1029
 k-point 69 :  -0.3333 0.4167 0.1667  plane waves:    1027
 k-point 70 :  -0.2500 0.4167 0.1667  plane waves:    1027
 k-point 71 :  -0.3333 0.5000 0.1667  plane waves:    1016
 k-point 72 :  -0.2500 0.5000 0.2500  plane waves:    1036

 maximum and minimum number of plane-waves per node :      1036      965

 maximum number of plane-waves:      1036
 maximum index in each direction: 
   IXMAX=    7   IYMAX=    6   IZMAX=    7
   IXMIN=   -7   IYMIN=   -7   IZMIN=   -7

 WARNING: aliasing errors must be expected set NGX to  30 to avoid them
 WARNING: aliasing errors must be expected set NGY to  28 to avoid them
 WARNING: aliasing errors must be expected set NGZ to  30 to avoid them
 aliasing errors are usually negligible using standard VASP settings
 and one can safely disregard these warnings

 serial   3D FFT for wavefunctions
 parallel 3D FFT for charge:
    minimum data exchange during FFTs selected (reduces bandwidth)


 total amount of memory used by VASP on root node    40187. kBytes
========================================================================

   base      :      30000. kBytes
   nonl-proj :       4807. kBytes
   fftplans  :       1025. kBytes
   grid      :       1926. kBytes
   one-center:          6. kBytes
   wavefun   :       2423. kBytes
 
     INWAV:  cpu time    0.00: real time    0.00
 Broyden mixing: mesh for mixing (old mesh)
   NGX = 13   NGY = 13   NGZ = 13
  (NGX  = 48   NGY  = 48   NGZ  = 48)
  gives a total of   2197 points

 initial charge density was supplied:
 charge density of overlapping atoms calculated
 number of electron       8.0000000 magnetization 
 keeping initial charge density in first step


--------------------------------------------------------------------------------------------------------


 Maximum index for augmentation-charges         3633 (set IRDMAX)


--------------------------------------------------------------------------------------------------------


 First call to EWALD:  gamma=   0.567
 Maximum number of real-space cells 3x 3x 3
 Maximum number of reciprocal cells 3x 3x 3

 FEWALD executed in parallel
    FEWALD:  cpu time    0.00: real time    0.00


----------------------------------------- Iteration    1(   1)  ---------------------------------------


    POTLOK:  cpu time    0.02: real time    0.02
    SETDIJ:  cpu time    0.00: real time    0.00
     EDDAV:  cpu time    0.24: real time    0.24
       DOS:  cpu time    0.00: real time    0.00
    --------------------------------------------
      LOOP:  cpu time    0.26: real time    0.26

 eigenvalue-minimisations  :  1152
 total energy-change (2. order) : 0.1060281E+02  (-0.3865723E+03)
 number of electron       8.0000000 magnetization 
 augmentation part        8.0000000 magnetization 

 Free energy of the ion-electron system (eV)
  ---------------------------------------------------
  alpha Z        PSCENC =         4.40007764
  Ewald energy   TEWEN  =      -249.95908767
  -Hartree energ DENC   =        -7.35272347
  -exchange      EXHF   =         0.00000000
  -V(xc)+E(xc)   XCENC  =       -17.46256520
  PAW double counting   =        65.95520812      -30.76852678
  entropy T*S    EENTRO =        -0.00096774
  eigenvalues    EBANDS =        39.65827342
  atomic energy  EATOM  =       206.13311910
  ---------------------------------------------------
  free energy    TOTEN  =        10.60280741 eV

  energy without entropy =       10.60377515  energy(sigma->0) =       10.60329128


--------------------------------------------------------------------------------------------------------




----------------------------------------- Iteration    1(   2)  ---------------------------------------


     EDDAV:  cpu time    0.33: real time    0.35
       DOS:  cpu time    0.00: real time    0.00
    --------------------------------------------
      LOOP:  cpu time    0.33: real time    0.35

 eigenvalue-minimisations  :  1808
 total energy-change (2. order) :-0.2043495E+02  (-0.2001060E+02)
 number of electron       8.0000000 magnetization 
 augmentation part        8.0000000 magnetization 

 Free energy of the ion-electron system (eV)
  ---------------------------------------------------
  alpha Z        PSCENC =         4.40007764
  Ewald energy   TEWEN  =      -249.95908767
  -Hartree energ DENC   =        -7.35272347
  -exchange      EXHF   =         0.00000000
  -V(xc)+E(xc)   XCENC  =       -17.46256520
  PAW double counting   =        65.95520812      -30.76852678
  entropy T*S    EENTRO =        -0.00000065
  eigenvalues    EBANDS =        19.22235736
  atomic energy  EATOM  =       206.13311910
  ---------------------------------------------------
  free energy    TOTEN  =        -9.83214157 eV

  energy without entropy =       -9.83214091  energy(sigma->0) =       -9.83214124


--------------------------------------------------------------------------------------------------------




----------------------------------------- Iteration    1(   3)  ---------------------------------------


     EDDAV:  cpu time    0.33: real time    0.35
       DOS:  cpu time    0.00: real time    0.00
    --------------------------------------------
      LOOP:  cpu time    0.33: real time    0.36

 eigenvalue-minimisations  :  1480
 total energy-change (2. order) :-0.2266262E+00  (-0.2266261E+00)
 number of electron       8.0000000 magnetization 
 augmentation part        8.0000000 magnetization 

 Free energy of the ion-electron system (eV)
  ---------------------------------------------------
  alpha Z        PSCENC =         4.40007764
  Ewald energy   TEWEN  =      -249.95908767
  -Hartree energ DENC   =        -7.35272347
  -exchange      EXHF   =         0.00000000
  -V(xc)+E(xc)   XCENC  =       -17.46256520
  PAW double counting   =        65.95520812      -30.76852678
  entropy T*S    EENTRO =        -0.00000026
  eigenvalues    EBANDS =        18.99573079
  atomic energy  EATOM  =       206.13311910
  ---------------------------------------------------
  free energy    TOTEN  =       -10.05876774 eV

  energy without entropy =      -10.05876748  energy(sigma->0) =      -10.05876761


--------------------------------------------------------------------------------------------------------




----------------------------------------- Iteration    1(   4)  ---------------------------------------


     EDDAV:  cpu time    0.34: real time    0.35
       DOS:  cpu time    0.00: real time    0.00
    --------------------------------------------
      LOOP:  cpu time    0.34: real time    0.35

 eigenvalue-minimisations  :  1864
 total energy-change (2. order) :-0.8436413E-03  (-0.8436407E-03)
 number of electron       8.0000000 magnetization 
 augmentation part        8.0000000 magnetization 

 Free energy of the ion-electron system (eV)
  ---------------------------------------------------
  alpha Z        PSCENC =         4.40007764
  Ewald energy   TEWEN  =      -249.95908767
  -Hartree energ DENC   =        -7.35272347
  -exchange      EXHF   =         0.00000000
  -V(xc)+E(xc)   XCENC  =       -17.46256520
  PAW double counting   =        65.95520812      -30.76852678
  entropy T*S    EENTRO =        -0.00000026
  eigenvalues    EBANDS =        18.99488715
  atomic energy  EATOM  =       206.13311910
  ---------------------------------------------------
  free energy    TOTEN  =       -10.05961138 eV

  energy without entropy =      -10.05961112  energy(sigma->0) =      -10.05961125


--------------------------------------------------------------------------------------------------------




----------------------------------------- Iteration    1(   5)  ---------------------------------------


     EDDAV:  cpu time    0.30: real time    0.30
       DOS:  cpu time    0.00: real time    0.00
    CHARGE:  cpu time    0.02: real time    0.02
    MIXING:  cpu time    0.00: real time    0.00
    --------------------------------------------
      LOOP:  cpu time    0.31: real time    0.32

 eigenvalue-minimisations  :  1600
 total energy-change (2. order) :-0.7386029E-06  (-0.7383090E-06)
 number of electron       8.0000000 magnetization 
 augmentation part       -0.4985356 magnetization 

 Broyden mixing:
  rms(total) = 0.37387E+00    rms(broyden)= 0.37387E+00
  rms(prec ) = 0.11566E+01
  weight for this iteration     100.00

 Free energy of the ion-electron system (eV)
  ---------------------------------------------------
  alpha Z        PSCENC =         4.40007764
  Ewald energy   TEWEN  =      -249.95908767
  -Hartree energ DENC   =        -7.35272347
  -exchange      EXHF   =         0.00000000
  -V(xc)+E(xc)   XCENC  =       -17.46256520
  PAW double counting   =        65.95520812      -30.76852678
  entropy T*S    EENTRO =        -0.00000026
  eigenvalues    EBANDS =        18.99488641
  atomic energy  EATOM  =       206.13311910
  ---------------------------------------------------
  free energy    TOTEN  =       -10.05961212 eV

  energy without entropy =      -10.05961186  energy(sigma->0) =      -10.05961199


--------------------------------------------------------------------------------------------------------




----------------------------------------- Iteration    1(   6)  ---------------------------------------


    POTLOK:  cpu time    0.01: real time    0.01
    SETDIJ:  cpu time    0.00: real time    0.00
     EDDAV:  cpu time    0.24: real time    0.25
       DOS:  cpu time    0.00: real time    0.00
    CHARGE:  cpu time    0.02: real time    0.02
    MIXING:  cpu time    0.00: real time    0.00
    --------------------------------------------
      LOOP:  cpu time    0.27: real time    0.29

 eigenvalue-minimisations  :  1240
 total energy-change (2. order) : 0.2788696E+00  (-0.2089681E-01)
 number of electron       8.0000000 magnetization 
 augmentation part       -0.4885022 magnetization 

 Broyden mixing:
  rms(total) = 0.21200E+00    rms(broyden)= 0.21200E+00
  rms(prec ) = 0.64655E+00
  weight for this iteration     100.00

 eigenvalues of (default mixing * dielectric matrix)
  average eigenvalue GAMMA=   2.2876
  2.2876

 Free energy of the ion-electron system (eV)
  ---------------------------------------------------
  alpha Z        PSCENC =         4.40007764
  Ewald energy   TEWEN  =      -249.95908767
  -Hartree energ DENC   =        -9.17376730
  -exchange      EXHF   =         0.00000000
  -V(xc)+E(xc)   XCENC  =       -17.15675474
  PAW double counting   =        74.64765253      -39.70464916
  entropy T*S    EENTRO =        -0.00001779
  eigenvalues    EBANDS =        21.03268493
  atomic energy  EATOM  =       206.13311910
  ---------------------------------------------------
  free energy    TOTEN  =        -9.78074247 eV

  energy without entropy =       -9.78072467  energy(sigma->0) =       -9.78073357


--------------------------------------------------------------------------------------------------------




----------------------------------------- Iteration    1(   7)  ---------------------------------------


    POTLOK:  cpu time    0.02: real time    0.02
    SETDIJ:  cpu time    0.00: real time    0.00
     EDDAV:  cpu time    0.28: real time    0.28
       DOS:  cpu time    0.00: real time    0.00
    CHARGE:  cpu time    0.02: real time    0.02
    MIXING:  cpu time    0.00: real time    0.00
    --------------------------------------------
      LOOP:  cpu time    0.31: real time    0.32

 eigenvalue-minimisations  :  1480
 total energy-change (2. order) : 0.1093227E+00  (-0.3026485E-01)
 number of electron       8.0000000 magnetization 
 augmentation part       -0.4773225 magnetization 

 Broyden mixing:
  rms(total) = 0.20783E-01    rms(broyden)= 0.20783E-01
  rms(prec ) = 0.55607E-01
  weight for this iteration     100.00

 eigenvalues of (default mixing * dielectric matrix)
  average eigenvalue GAMMA=   2.3952
  2.3952  2.3952

 Free energy of the ion-electron system (eV)
  ---------------------------------------------------
  alpha Z        PSCENC =         4.40007764
  Ewald energy   TEWEN  =      -249.95908767
  -Hartree energ DENC   =       -11.83333403
  -exchange      EXHF   =         0.00000000
  -V(xc)+E(xc)   XCENC  =       -16.70190675
  PAW double counting   =        86.55243548      -51.92071607
  entropy T*S    EENTRO =        -0.00033417
  eigenvalues    EBANDS =        23.65832676
  atomic energy  EATOM  =       206.13311910
  ---------------------------------------------------
  free energy    TOTEN  =        -9.67141972 eV

  energy without entropy =       -9.67108554  energy(sigma->0) =       -9.67125263


--------------------------------------------------------------------------------------------------------




----------------------------------------- Iteration    1(   8)  ---------------------------------------


    POTLOK:  cpu time    0.01: real time    0.01
    SETDIJ:  cpu time    0.00: real time    0.00
     EDDAV:  cpu time    0.26: real time    0.27
       DOS:  cpu time    0.00: real time    0.00
    CHARGE:  cpu time    0.02: real time    0.02
    MIXING:  cpu time    0.00: real time    0.00
    --------------------------------------------
      LOOP:  cpu time    0.29: real time    0.31

 eigenvalue-minimisations  :  1392
 total energy-change (2. order) :-0.1292199E-02  (-0.6748067E-03)
 number of electron       8.0000000 magnetization 
 augmentation part       -0.4787136 magnetization 

 Broyden mixing:
  rms(total) = 0.36709E-02    rms(broyden)= 0.36708E-02
  rms(prec ) = 0.13368E-01
  weight for this iteration     100.00

 eigenvalues of (default mixing * dielectric matrix)
  average eigenvalue GAMMA=   2.0603
  2.7712  1.4620  1.9477

 Free energy of the ion-electron system (eV)
  ---------------------------------------------------
  alpha Z        PSCENC =         4.40007764
  Ewald energy   TEWEN  =      -249.95908767
  -Hartree energ DENC   =       -11.78243404
  -exchange      EXHF   =         0.00000000
  -V(xc)+E(xc)   XCENC  =       -16.67858701
  PAW double counting   =        85.92050018      -51.26229459
  entropy T*S    EENTRO =        -0.00027936
  eigenvalues    EBANDS =        23.55627382
  atomic energy  EATOM  =       206.13311910
  ---------------------------------------------------
  free energy    TOTEN  =        -9.67271192 eV

  energy without entropy =       -9.67243256  energy(sigma->0) =       -9.67257224


--------------------------------------------------------------------------------------------------------




----------------------------------------- Iteration    1(   9)  ---------------------------------------


    POTLOK:  cpu time    0.01: real time    0.01
    SETDIJ:  cpu time    0.00: real time    0.00
     EDDAV:  cpu time    0.31: real time    0.34
       DOS:  cpu time    0.00: real time    0.00
    CHARGE:  cpu time    0.02: real time    0.02
    MIXING:  cpu time    0.00: real time    0.00
    --------------------------------------------
      LOOP:  cpu time    0.34: real time    0.38

 eigenvalue-minimisations  :  1712
 total energy-change (2. order) :-0.2452412E-04  (-0.1768778E-04)
 number of electron       8.0000000 magnetization 
 augmentation part       -0.4785828 magnetization 

 Broyden mixing:
  rms(total) = 0.17500E-02    rms(broyden)= 0.17500E-02
  rms(prec ) = 0.39982E-02
  weight for this iteration     100.00

 eigenvalues of (default mixing * dielectric matrix)
  average eigenvalue GAMMA=   2.1259
  0.9918  2.8484  2.5308  2.1325

 Free energy of the ion-electron system (eV)
  ---------------------------------------------------
  alpha Z        PSCENC =         4.40007764
  Ewald energy   TEWEN  =      -249.95908767
  -Hartree energ DENC   =       -11.85125755
  -exchange      EXHF   =         0.00000000
  -V(xc)+E(xc)   XCENC  =       -16.66662315
  PAW double counting   =        86.15243698      -51.50051097
  entropy T*S    EENTRO =        -0.00028609
  eigenvalues    EBANDS =        23.61939527
  atomic energy  EATOM  =       206.13311910
  ---------------------------------------------------
  free energy    TOTEN  =        -9.67273644 eV

  energy without entropy =       -9.67245035  energy(sigma->0) =       -9.67259340


--------------------------------------------------------------------------------------------------------




----------------------------------------- Iteration    1(  10)  ---------------------------------------


    POTLOK:  cpu time    0.02: real time    0.01
    SETDIJ:  cpu time    0.00: real time    0.00
     EDDAV:  cpu time    0.26: real time    0.27
       DOS:  cpu time    0.00: real time    0.00
    CHARGE:  cpu time    0.02: real time    0.02
    MIXING:  cpu time    0.00: real time    0.00
    --------------------------------------------
      LOOP:  cpu time    0.30: real time    0.32

 eigenvalue-minimisations  :  1408
 total energy-change (2. order) :-0.1108086E-04  (-0.2040598E-05)
 number of electron       8.0000000 magnetization 
 augmentation part       -0.4785741 magnetization 

 Broyden mixing:
  rms(total) = 0.12958E-03    rms(broyden)= 0.12957E-03
  rms(prec ) = 0.31859E-03
  weight for this iteration     100.00

 eigenvalues of (default mixing * dielectric matrix)
  average eigenvalue GAMMA=   1.9497
  3.0126  2.5809  2.0876  0.9972  1.0702

 Free energy of the ion-electron system (eV)
  ---------------------------------------------------
  alpha Z        PSCENC =         4.40007764
  Ewald energy   TEWEN  =      -249.95908767
  -Hartree energ DENC   =       -11.85227188
  -exchange      EXHF   =         0.00000000
  -V(xc)+E(xc)   XCENC  =       -16.66764624
  PAW double counting   =        86.06723207      -51.41424540
  entropy T*S    EENTRO =        -0.00028406
  eigenvalues    EBANDS =        23.62035892
  atomic energy  EATOM  =       206.13311910
  ---------------------------------------------------
  free energy    TOTEN  =        -9.67274752 eV

  energy without entropy =       -9.67246346  energy(sigma->0) =       -9.67260549


--------------------------------------------------------------------------------------------------------




----------------------------------------- Iteration    1(  11)  ---------------------------------------


    POTLOK:  cpu time    0.01: real time    0.01
    SETDIJ:  cpu time    0.00: real time    0.00
     EDDAV:  cpu time    0.36: real time    0.46
       DOS:  cpu time    0.00: real time    0.00
    CHARGE:  cpu time    0.02: real time    0.02
    MIXING:  cpu time    0.00: real time    0.00
    --------------------------------------------
      LOOP:  cpu time    0.39: real time    0.50

 eigenvalue-minimisations  :  1816
 total energy-change (2. order) : 0.2165881E-06  (-0.2859202E-07)
 number of electron       8.0000000 magnetization 
 augmentation part       -0.4785832 magnetization 

 Broyden mixing:
  rms(total) = 0.51046E-04    rms(broyden)= 0.51044E-04
  rms(prec ) = 0.84596E-04
  weight for this iteration     100.00

 eigenvalues of (default mixing * dielectric matrix)
  average eigenvalue GAMMA=   2.0698
  3.0653  2.6363  2.6363  2.0882  0.9805  1.0124

 Free energy of the ion-electron system (eV)
  ---------------------------------------------------
  alpha Z        PSCENC =         4.40007764
  Ewald energy   TEWEN  =      -249.95908767
  -Hartree energ DENC   =       -11.85164557
  -exchange      EXHF   =         0.00000000
  -V(xc)+E(xc)   XCENC  =       -16.66763451
  PAW double counting   =        86.06284794      -51.40963758
  entropy T*S    EENTRO =        -0.00028370
  eigenvalues    EBANDS =        23.61949704
  atomic energy  EATOM  =       206.13311910
  ---------------------------------------------------
  free energy    TOTEN  =        -9.67274731 eV

  energy without entropy =       -9.67246361  energy(sigma->0) =       -9.67260546


--------------------------------------------------------------------------------------------------------




----------------------------------------- Iteration    1(  12)  ---------------------------------------


    POTLOK:  cpu time    0.01: real time    0.02
    SETDIJ:  cpu time    0.00: real time    0.01
     EDDAV:  cpu time    0.49: real time    0.61
       DOS:  cpu time    0.00: real time    0.00
    CHARGE:  cpu time    0.02: real time    0.02
    MIXING:  cpu time    0.00: real time    0.00
    --------------------------------------------
      LOOP:  cpu time    0.52: real time    0.66

 eigenvalue-minimisations  :  1480
 total energy-change (2. order) :-0.1494888E-07  (-0.1616784E-08)
 number of electron       8.0000000 magnetization 
 augmentation part       -0.4785812 magnetization 

 Broyden mixing:
  rms(total) = 0.56751E-05    rms(broyden)= 0.56743E-05
  rms(prec ) = 0.15861E-04
  weight for this iteration     100.00

 eigenvalues of (default mixing * dielectric matrix)
  average eigenvalue GAMMA=   1.9299
  3.0999  2.6655  2.4851  2.1100  0.9738  1.0754  1.0995

 Free energy of the ion-electron system (eV)
  ---------------------------------------------------
  alpha Z        PSCENC =         4.40007764
  Ewald energy   TEWEN  =      -249.95908767
  -Hartree energ DENC   =       -11.85186872
  -exchange      EXHF   =         0.00000000
  -V(xc)+E(xc)   XCENC  =       -16.66763416
  PAW double counting   =        86.06683897      -51.41362029
  entropy T*S    EENTRO =        -0.00028371
  eigenvalues    EBANDS =        23.61971153
  atomic energy  EATOM  =       206.13311910
  ---------------------------------------------------
  free energy    TOTEN  =        -9.67274732 eV

  energy without entropy =       -9.67246361  energy(sigma->0) =       -9.67260547


--------------------------------------------------------------------------------------------------------




----------------------------------------- Iteration    1(  13)  ---------------------------------------


    POTLOK:  cpu time    0.01: real time    0.01
    SETDIJ:  cpu time    0.00: real time    0.00
     EDDAV:  cpu time    0.35: real time    0.36
       DOS:  cpu time    0.00: real time    0.00
    CHARGE:  cpu time    0.02: real time    0.02
    MIXING:  cpu time    0.00: real time    0.00
    --------------------------------------------
      LOOP:  cpu time    0.38: real time    0.40

 eigenvalue-minimisations  :  1768
 total energy-change (2. order) : 0.1190622E-07  (-0.3597734E-10)
 number of electron       8.0000000 magnetization 
 augmentation part       -0.4785815 magnetization 

 Broyden mixing:
  rms(total) = 0.15574E-05    rms(broyden)= 0.15573E-05
  rms(prec ) = 0.26665E-05
  weight for this iteration     100.00

 eigenvalues of (default mixing * dielectric matrix)
  average eigenvalue GAMMA=   2.0145
  3.1052  2.0977  2.7489  2.7129  2.4620  1.0055  1.0055  0.9785

 Free energy of the ion-electron system (eV)
  ---------------------------------------------------
  alpha Z        PSCENC =         4.40007764
  Ewald energy   TEWEN  =      -249.95908767
  -Hartree energ DENC   =       -11.85179956
  -exchange      EXHF   =         0.00000000
  -V(xc)+E(xc)   XCENC  =       -16.66764283
  PAW double counting   =        86.06634295      -51.41311559
  entropy T*S    EENTRO =        -0.00028370
  eigenvalues    EBANDS =        23.61964234
  atomic energy  EATOM  =       206.13311910
  ---------------------------------------------------
  free energy    TOTEN  =        -9.67274731 eV

  energy without entropy =       -9.67246361  energy(sigma->0) =       -9.67260546


--------------------------------------------------------------------------------------------------------




----------------------------------------- Iteration    1(  14)  ---------------------------------------


    POTLOK:  cpu time    0.01: real time    0.02
    SETDIJ:  cpu time    0.00: real time    0.00
     EDDAV:  cpu time    0.22: real time    0.22
       DOS:  cpu time    0.00: real time    0.00
    CHARGE:  cpu time    0.02: real time    0.02
    MIXING:  cpu time    0.00: real time    0.00
    --------------------------------------------
      LOOP:  cpu time    0.25: real time    0.26

 eigenvalue-minimisations  :  1000
 total energy-change (2. order) :-0.3307917E-08  (-0.2589268E-11)
 number of electron       8.0000000 magnetization 
 augmentation part       -0.4785815 magnetization 

 Broyden mixing:
  rms(total) = 0.13410E-06    rms(broyden)= 0.13404E-06
  rms(prec ) = 0.28996E-06
  weight for this iteration     100.00

 eigenvalues of (default mixing * dielectric matrix)
  average eigenvalue GAMMA=   1.8801
  3.0996  2.0972  2.7843  2.6395  2.5040  1.0033  1.0033  0.9807  0.8095

 Free energy of the ion-electron system (eV)
  ---------------------------------------------------
  alpha Z        PSCENC =         4.40007764
  Ewald energy   TEWEN  =      -249.95908767
  -Hartree energ DENC   =       -11.85180549
  -exchange      EXHF   =         0.00000000
  -V(xc)+E(xc)   XCENC  =       -16.66764190
  PAW double counting   =        86.06625966      -51.41303452
  entropy T*S    EENTRO =        -0.00028370
  eigenvalues    EBANDS =        23.61964956
  atomic energy  EATOM  =       206.13311910
  ---------------------------------------------------
  free energy    TOTEN  =        -9.67274731 eV

  energy without entropy =       -9.67246361  energy(sigma->0) =       -9.67260546


--------------------------------------------------------------------------------------------------------




----------------------------------------- Iteration    1(  15)  ---------------------------------------


    POTLOK:  cpu time    0.01: real time    0.01
    SETDIJ:  cpu time    0.00: real time    0.00
     EDDAV:  cpu time    0.19: real time    0.19
       DOS:  cpu time    0.00: real time    0.00
    CHARGE:  cpu time    0.02: real time    0.02
    MIXING:  cpu time    0.00: real time    0.00
    --------------------------------------------
      LOOP:  cpu time    0.22: real time    0.23

 eigenvalue-minimisations  :   824
 total energy-change (2. order) :-0.5160246E-09  (-0.8666780E-13)
 number of electron       8.0000000 magnetization 
 augmentation part       -0.4785815 magnetization 

 Broyden mixing:
  rms(total) = 0.34746E-07    rms(broyden)= 0.34738E-07
  rms(prec ) = 0.65124E-07
  weight for this iteration     100.00

 eigenvalues of (default mixing * dielectric matrix)
  average eigenvalue GAMMA=   1.9369
  3.0946  2.0948  2.7231  2.6633  2.4938  2.3174  0.9941  0.9941  1.0051  0.9885

 Free energy of the ion-electron system (eV)
  ---------------------------------------------------
  alpha Z        PSCENC =         4.40007764
  Ewald energy   TEWEN  =      -249.95908767
  -Hartree energ DENC   =       -11.85180529
  -exchange      EXHF   =         0.00000000
  -V(xc)+E(xc)   XCENC  =       -16.66764207
  PAW double counting   =        86.06625516      -51.41303018
  entropy T*S    EENTRO =        -0.00028370
  eigenvalues    EBANDS =        23.61964969
  atomic energy  EATOM  =       206.13311910
  ---------------------------------------------------
  free energy    TOTEN  =        -9.67274731 eV

  energy without entropy =       -9.67246361  energy(sigma->0) =       -9.67260546


--------------------------------------------------------------------------------------------------------




----------------------------------------- Iteration    1(  16)  ---------------------------------------


    POTLOK:  cpu time    0.01: real time    0.01
    SETDIJ:  cpu time    0.00: real time    0.00
     EDDAV:  cpu time    0.17: real time    0.18
       DOS:  cpu time    0.00: real time    0.00
    CHARGE:  cpu time    0.02: real time    0.02
    MIXING:  cpu time    0.00: real time    0.00
    --------------------------------------------
      LOOP:  cpu time    0.20: real time    0.22

 eigenvalue-minimisations  :   768
 total energy-change (2. order) : 0.5442473E-09  ( 0.4658562E-13)
 number of electron       8.0000000 magnetization 
 augmentation part       -0.4785815 magnetization 

 Broyden mixing:
  rms(total) = 0.12509E-07    rms(broyden)= 0.12509E-07
  rms(prec ) = 0.38666E-07
  weight for this iteration     100.00

 eigenvalues of (default mixing * dielectric matrix)
  average eigenvalue GAMMA=   1.8839
  3.0997  2.0972  2.8622  2.7056  2.6250  2.5023  1.0037  1.0037  0.9809  0.9214
  0.9214

 Free energy of the ion-electron system (eV)
  ---------------------------------------------------
  alpha Z        PSCENC =         4.40007764
  Ewald energy   TEWEN  =      -249.95908767
  -Hartree energ DENC   =       -11.85180555
  -exchange      EXHF   =         0.00000000
  -V(xc)+E(xc)   XCENC  =       -16.66764205
  PAW double counting   =        86.06625895      -51.41303398
  entropy T*S    EENTRO =        -0.00028370
  eigenvalues    EBANDS =        23.61964994
  atomic energy  EATOM  =       206.13311910
  ---------------------------------------------------
  free energy    TOTEN  =        -9.67274731 eV

  energy without entropy =       -9.67246361  energy(sigma->0) =       -9.67260546


--------------------------------------------------------------------------------------------------------




----------------------------------------- Iteration    1(  17)  ---------------------------------------


    POTLOK:  cpu time    0.01: real time    0.01
    SETDIJ:  cpu time    0.00: real time    0.00
     EDDAV:  cpu time    0.16: real time    0.17
       DOS:  cpu time    0.00: real time    0.00
    CHARGE:  cpu time    0.02: real time    0.02
    MIXING:  cpu time    0.00: real time    0.00
    --------------------------------------------
      LOOP:  cpu time    0.20: real time    0.20

 eigenvalue-minimisations  :   696
 total energy-change (2. order) : 0.2612239E-09  (-0.9716595E-15)
 number of electron       8.0000000 magnetization 
 augmentation part       -0.4785815 magnetization 

 Broyden mixing:
  rms(total) = 0.13633E-08    rms(broyden)= 0.13631E-08
  rms(prec ) = 0.29029E-08
  weight for this iteration     100.00

 eigenvalues of (default mixing * dielectric matrix)
  average eigenvalue GAMMA=   1.8745
  3.1019  2.8561  2.6556  2.6556  2.5062  2.0966  1.6784  1.0336  1.0097  0.9945
  0.9945  0.9117

 Free energy of the ion-electron system (eV)
  ---------------------------------------------------
  alpha Z        PSCENC =         4.40007764
  Ewald energy   TEWEN  =      -249.95908767
  -Hartree energ DENC   =       -11.85180541
  -exchange      EXHF   =         0.00000000
  -V(xc)+E(xc)   XCENC  =       -16.66764207
  PAW double counting   =        86.06625849      -51.41303350
  entropy T*S    EENTRO =        -0.00028370
  eigenvalues    EBANDS =        23.61964980
  atomic energy  EATOM  =       206.13311910
  ---------------------------------------------------
  free energy    TOTEN  =        -9.67274731 eV

  energy without entropy =       -9.67246361  energy(sigma->0) =       -9.67260546


--------------------------------------------------------------------------------------------------------




----------------------------------------- Iteration    1(  18)  ---------------------------------------


    POTLOK:  cpu time    0.02: real time    0.01
    SETDIJ:  cpu time    0.00: real time    0.00
     EDDAV:  cpu time    0.17: real time    0.22
       DOS:  cpu time    0.00: real time    0.00
    CHARGE:  cpu time    0.02: real time    0.02
    MIXING:  cpu time    0.00: real time    0.00
    --------------------------------------------
      LOOP:  cpu time    0.20: real time    0.25

 eigenvalue-minimisations  :   696
 total energy-change (2. order) :-0.1418528E-09  (-0.2780960E-13)
 number of electron       8.0000000 magnetization 
 augmentation part       -0.4785815 magnetization 

 Broyden mixing:
  rms(total) = 0.14713E-08    rms(broyden)= 0.14713E-08
  rms(prec ) = 0.52197E-08
  weight for this iteration     100.00

 eigenvalues of (default mixing * dielectric matrix)
  average eigenvalue GAMMA=   1.9255
  3.2540  3.1701  2.0969  2.7992  2.6732  2.6732  2.5010  0.9843  1.0033  1.0033
  1.0144  1.0144  0.8443

 Free energy of the ion-electron system (eV)
  ---------------------------------------------------
  alpha Z        PSCENC =         4.40007764
  Ewald energy   TEWEN  =      -249.95908767
  -Hartree energ DENC   =       -11.85180543
  -exchange      EXHF   =         0.00000000
  -V(xc)+E(xc)   XCENC  =       -16.66764207
  PAW double counting   =        86.06625854      -51.41303355
  entropy T*S    EENTRO =        -0.00028370
  eigenvalues    EBANDS =        23.61964982
  atomic energy  EATOM  =       206.13311910
  ---------------------------------------------------
  free energy    TOTEN  =        -9.67274731 eV

  energy without entropy =       -9.67246361  energy(sigma->0) =       -9.67260546


--------------------------------------------------------------------------------------------------------




----------------------------------------- Iteration    1(  19)  ---------------------------------------


    POTLOK:  cpu time    0.01: real time    0.01
    SETDIJ:  cpu time    0.00: real time    0.00
     EDDAV:  cpu time    0.16: real time    0.18
       DOS:  cpu time    0.00: real time    0.00
    CHARGE:  cpu time    0.02: real time    0.02
    MIXING:  cpu time    0.00: real time    0.00
    --------------------------------------------
      LOOP:  cpu time    0.19: real time    0.22

 eigenvalue-minimisations  :   672
 total energy-change (2. order) : 0.2183356E-09  ( 0.9089396E-14)
 number of electron       8.0000000 magnetization 
 augmentation part       -0.4785815 magnetization 

 Broyden mixing:
  rms(total) = 0.41128E-09    rms(broyden)= 0.41112E-09
  rms(prec ) = 0.16203E-08
  weight for this iteration     100.00

 eigenvalues of (default mixing * dielectric matrix)
  average eigenvalue GAMMA=   1.8421
  3.1202  2.8091  2.8091  2.6746  2.4842  2.1000  2.2562  1.6580  0.9836  1.0061
  1.0061  1.0140  1.0140  0.8536

 Free energy of the ion-electron system (eV)
  ---------------------------------------------------
  alpha Z        PSCENC =         4.40007764
  Ewald energy   TEWEN  =      -249.95908767
  -Hartree energ DENC   =       -11.85180540
  -exchange      EXHF   =         0.00000000
  -V(xc)+E(xc)   XCENC  =       -16.66764207
  PAW double counting   =        86.06625847      -51.41303347
  entropy T*S    EENTRO =        -0.00028370
  eigenvalues    EBANDS =        23.61964979
  atomic energy  EATOM  =       206.13311910
  ---------------------------------------------------
  free energy    TOTEN  =        -9.67274731 eV

  energy without entropy =       -9.67246361  energy(sigma->0) =       -9.67260546


--------------------------------------------------------------------------------------------------------




----------------------------------------- Iteration    1(  20)  ---------------------------------------


    POTLOK:  cpu time    0.01: real time    0.02
    SETDIJ:  cpu time    0.00: real time    0.00
     EDDAV:  cpu time    0.16: real time    0.16
       DOS:  cpu time    0.00: real time    0.00
    CHARGE:  cpu time    0.02: real time    0.02
    MIXING:  cpu time    0.00: real time    0.00
    --------------------------------------------
      LOOP:  cpu time    0.20: real time    0.20

 eigenvalue-minimisations  :   640
 total energy-change (2. order) :-0.5564402E-09  ( 0.4637544E-13)
 number of electron       8.0000000 magnetization 
 augmentation part       -0.4785815 magnetization 

 Broyden mixing:
  rms(total) = 0.21763E-09    rms(broyden)= 0.21708E-09
  rms(prec ) = 0.84399E-09
  weight for this iteration     100.00

 eigenvalues of (default mixing * dielectric matrix)
  average eigenvalue GAMMA=   1.8732
  3.1932  3.0366  2.0972  2.7099  2.7099  2.6082  2.6082  2.4797  1.0152  1.0152
  0.9825  0.9876  0.9876  0.9000  0.7676

 Free energy of the ion-electron system (eV)
  ---------------------------------------------------
  alpha Z        PSCENC =         4.40007764
  Ewald energy   TEWEN  =      -249.95908767
  -Hartree energ DENC   =       -11.85180541
  -exchange      EXHF   =         0.00000000
  -V(xc)+E(xc)   XCENC  =       -16.66764207
  PAW double counting   =        86.06625849      -51.41303349
  entropy T*S    EENTRO =        -0.00028370
  eigenvalues    EBANDS =        23.61964980
  atomic energy  EATOM  =       206.13311910
  ---------------------------------------------------
  free energy    TOTEN  =        -9.67274731 eV

  energy without entropy =       -9.67246361  energy(sigma->0) =       -9.67260546


--------------------------------------------------------------------------------------------------------




----------------------------------------- Iteration    1(  21)  ---------------------------------------


    POTLOK:  cpu time    0.02: real time    0.01
    SETDIJ:  cpu time    0.00: real time    0.00
     EDDAV:  cpu time    0.16: real time    0.16
       DOS:  cpu time    0.00: real time    0.00
    CHARGE:  cpu time    0.02: real time    0.02
    MIXING:  cpu time    0.00: real time    0.00
    --------------------------------------------
      LOOP:  cpu time    0.19: real time    0.20

 eigenvalue-minimisations  :   656
 total energy-change (2. order) : 0.1073033E-08  (-0.2998463E-13)
 number of electron       8.0000000 magnetization 
 augmentation part       -0.4785815 magnetization 

 Broyden mixing:
  rms(total) = 0.62614E-10    rms(broyden)= 0.57734E-10
  rms(prec ) = 0.17988E-09
  weight for this iteration     100.00

 eigenvalues of (default mixing * dielectric matrix)
  average eigenvalue GAMMA=   1.8694
  3.6185  3.1026  2.0971  2.8698  2.7283  2.6351  2.6351  2.4987  1.0261  1.0261
  1.0053  1.0053  0.9788  0.9683  0.9683  0.7470

 Free energy of the ion-electron system (eV)
  ---------------------------------------------------
  alpha Z        PSCENC =         4.40007764
  Ewald energy   TEWEN  =      -249.95908767
  -Hartree energ DENC   =       -11.85180541
  -exchange      EXHF   =         0.00000000
  -V(xc)+E(xc)   XCENC  =       -16.66764207
  PAW double counting   =        86.06625848      -51.41303348
  entropy T*S    EENTRO =        -0.00028370
  eigenvalues    EBANDS =        23.61964980
  atomic energy  EATOM  =       206.13311910
  ---------------------------------------------------
  free energy    TOTEN  =        -9.67274731 eV

  energy without entropy =       -9.67246361  energy(sigma->0) =       -9.67260546


--------------------------------------------------------------------------------------------------------




----------------------------------------- Iteration    1(  22)  ---------------------------------------


    POTLOK:  cpu time    0.01: real time    0.01
    SETDIJ:  cpu time    0.00: real time    0.00
     EDDAV:  cpu time    0.16: real time    0.17
       DOS:  cpu time    0.00: real time    0.00
    --------------------------------------------
      LOOP:  cpu time    0.18: real time    0.19

 eigenvalue-minimisations  :   664
 total energy-change (2. order) :-0.1492140E-10  ( 0.6912279E-14)
 number of electron       8.0000000 magnetization 
 augmentation part       -0.4785815 magnetization 

 Free energy of the ion-electron system (eV)
  ---------------------------------------------------
  alpha Z        PSCENC =         4.40007764
  Ewald energy   TEWEN  =      -249.95908767
  -Hartree energ DENC   =       -11.85180541
  -exchange      EXHF   =         0.00000000
  -V(xc)+E(xc)   XCENC  =       -16.66764207
  PAW double counting   =        86.06625848      -51.41303348
  entropy T*S    EENTRO =        -0.00028370
  eigenvalues    EBANDS =        23.61964980
  atomic energy  EATOM  =       206.13311910
  ---------------------------------------------------
  free energy    TOTEN  =        -9.67274731 eV

  energy without entropy =       -9.67246361  energy(sigma->0) =       -9.67260546


--------------------------------------------------------------------------------------------------------




 average (electrostatic) potential at core
  the test charge radii are     0.9892
  (the norm of the test charge is              1.0000)
       1 -79.9871       2 -79.9871
 
 
 
 E-fermi :   8.8657     XC(G=0): -10.4992     alpha+bet :-15.6750


 k-point     1 :       0.0000    0.0000    0.0000
  band No.  band energies     occupation 
      1      -5.1324      2.00000
      2       8.9033      0.36342
      3       8.9033      0.36342
      4       8.9033      0.36342
      5      11.5294      0.00000
      6      11.5294      0.00000
      7      11.5294      0.00000
      8      15.6165      0.00000

 k-point     2 :       0.0833    0.0000    0.0000
  band No.  band energies     occupation 
      1      -5.0186      2.00000
      2       7.9518      2.00000
      3       8.7131      1.99554
      4       8.7131      1.99554
      5      11.8094      0.00000
      6      11.8094      0.00000
      7      11.8269      0.00000
      8      16.0503      0.00000

 k-point     3 :       0.1667    0.0000    0.0000
  band No.  band energies     occupation 
      1      -4.6796      2.00000
      2       6.1831      2.00000
      3       8.3299      2.00000
      4       8.3299      2.00000
      5      11.9268      0.00000
      6      12.3373      0.00000
      7      12.3373      0.00000
      8      15.9142      0.00000

 k-point     4 :       0.2500    0.0000    0.0000
  band No.  band energies     occupation 
      1      -4.1248      2.00000
      2       4.3294      2.00000
      3       7.9640      2.00000
      4       7.9640      2.00000
      5      11.7657      0.00000
      6      12.5470      0.00000
      7      12.5470      0.00000
      8      16.1645      0.00000

 k-point     5 :       0.3333    0.0000    0.0000
  band No.  band energies     occupation 
      1      -3.3798      2.00000
      2       2.6000      2.00000
      3       7.6909      2.00000
      4       7.6909      2.00000
      5      11.5724      0.00000
      6      12.3410      0.00000
      7      12.3410      0.00000
      8      17.2737      0.00000

 k-point     6 :       0.4167    0.0000    0.0000
[...]
      8      17.8656      0.00000

 k-point    37 :       0.5000    0.3333    0.0000
  band No.  band energies     occupation 
      1      -1.2428      2.00000
      2       1.6561      2.00000
      3       4.1220      2.00000
      4       5.6581      2.00000
      5       9.3968      0.00000
      6      11.4429      0.00000
      7      17.1735      0.00000
      8      17.8853      0.00000

 k-point    38 :      -0.4167    0.3333    0.0000
  band No.  band energies     occupation 
      1      -0.5514      2.00000
      2       0.9645      2.00000
      3       3.3306      2.00000
      4       5.8583      2.00000
      5       9.6170      0.00000
      6      13.1665      0.00000
      7      16.7550      0.00000
      8      17.7215      0.00000

 k-point    39 :      -0.3333    0.3333    0.0000
  band No.  band energies     occupation 
      1      -0.8914      2.00000
      2       1.3039      2.00000
      3       3.0610      2.00000
      4       6.2302      2.00000
      5      10.0516      0.00000
      6      14.8852      0.00000
      7      16.2650      0.00000
      8      16.6911      0.00000

 k-point    40 :       0.4167    0.4167    0.0000
  band No.  band energies     occupation 
      1      -1.4498      2.00000
      2       1.7835      2.00000
      3       5.4175      2.00000
      4       5.4175      2.00000
      5       8.8706      0.90228
      6       9.3830      0.00000
      7      19.1723      0.00000
      8      19.1723      0.00000

 k-point    41 :       0.5000    0.4167    0.0000
  band No.  band energies     occupation 
      1      -0.6652      2.00000
      2       0.9309      2.00000
      3       4.7832      2.00000
      4       5.3789      2.00000
      5       9.0367      0.00213
      6       9.7442      0.00000
      7      19.2566      0.00000
      8      19.6710      0.00000

 k-point    42 :      -0.4167    0.4167    0.0000
  band No.  band energies     occupation 
      1       0.0048      2.00000
      2       0.3860      2.00000
      3       3.8112      2.00000
      4       5.5288      2.00000
      5       9.2199      0.00000
      6      11.2698      0.00000
      7      18.8607      0.00000
      8      18.8646      0.00000

 k-point    43 :       0.5000    0.5000    0.0000
  band No.  band energies     occupation 
      1       0.0774      2.00000
      2       0.0774      2.00000
      3       5.2842      2.00000
      4       5.2842      2.00000
      5       8.9338      0.12276
      6       8.9338      0.12276
      7      20.7479      0.00000
      8      20.7479      0.00000

 k-point    44 :       0.2500    0.1667    0.0833
  band No.  band energies     occupation 
      1      -4.3789      2.00000
      2       5.9951      2.00000
      3       6.7357      2.00000
      4       8.1009      2.00000
      5      11.2604      0.00000
      6      13.2512      0.00000
      7      13.5753      0.00000
      8      13.8626      0.00000

 k-point    45 :       0.3333    0.1667    0.0833
  band No.  band energies     occupation 
      1      -3.8265      2.00000
      2       4.4450      2.00000
      3       6.1597      2.00000
      4       7.7379      2.00000
      5      11.6159      0.00000
      6      13.0295      0.00000
      7      13.8410      0.00000
      8      14.0190      0.00000

 k-point    46 :       0.4167    0.1667    0.0833
  band No.  band energies     occupation 
      1      -3.0844      2.00000
      2       2.7900      2.00000
      3       5.9149      2.00000
      4       7.2942      2.00000
      5      11.6832      0.00000
      6      12.6081      0.00000
      7      13.9776      0.00000
      8      14.8312      0.00000

 k-point    47 :       0.5000    0.1667    0.0833
  band No.  band energies     occupation 
      1      -2.2404      2.00000
      2       1.3660      2.00000
      3       5.8221      2.00000
      4       6.9464      2.00000
      5      11.6646      0.00000
      6      12.2126      0.00000
      7      13.8622      0.00000
      8      16.3675      0.00000

 k-point    48 :      -0.4167    0.1667    0.0833
  band No.  band energies     occupation 
      1      -1.7284      2.00000
      2       0.6568      2.00000
      3       5.8063      2.00000
      4       6.8109      2.00000
      5      11.6996      0.00000
      6      12.0143      0.00000
      7      13.8138      0.00000
      8      17.9849      0.00000

 k-point    49 :       0.3333    0.2500    0.0833
  band No.  band energies     occupation 
      1      -3.6356      2.00000
      2       4.7509      2.00000
      3       5.8643      2.00000
      4       6.8739      2.00000
      5      10.5514      0.00000
      6      12.1618      0.00000
      7      14.5151      0.00000
      8      15.3731      0.00000

 k-point    50 :       0.4167    0.2500    0.0833
  band No.  band energies     occupation 
      1      -2.9550      2.00000
      2       3.4046      2.00000
      3       5.2695      2.00000
      4       6.4521      2.00000
      5      10.8742      0.00000
      6      12.4604      0.00000
      7      14.2333      0.00000
      8      15.8085      0.00000

 k-point    51 :       0.5000    0.2500    0.0833
  band No.  band energies     occupation 
      1      -2.1280      2.00000
      2       1.9934      2.00000
      3       4.9173      2.00000
      4       6.1401      2.00000
      5      10.9324      0.00000
      6      13.2752      0.00000
      7      14.2624      0.00000
      8      15.8627      0.00000

 k-point    52 :      -0.4167    0.2500    0.0833
  band No.  band energies     occupation 
      1      -1.4076      2.00000
      2       0.9899      2.00000
      3       4.6295      2.00000
      4       6.1145      2.00000
      5      11.0865      0.00000
      6      13.1356      0.00000
      7      15.2156      0.00000
      8      16.3390      0.00000

 k-point    53 :      -0.3333    0.2500    0.0833
  band No.  band energies     occupation 
      1      -1.6085      2.00000
      2       1.2587      2.00000
      3       4.4397      2.00000
      4       6.3583      2.00000
      5      11.4242      0.00000
      6      12.9044      0.00000
      7      15.3257      0.00000
      8      16.3814      0.00000

 k-point    54 :      -0.2500    0.2500    0.0833
  band No.  band energies     occupation 
      1      -2.4274      2.00000
      2       2.4741      2.00000
      3       4.4376      2.00000
      4       6.7950      2.00000
      5      11.9254      0.00000
      6      12.7421      0.00000
      7      14.5800      0.00000
      8      15.4305      0.00000

 k-point    55 :      -0.1667    0.2500    0.0833
  band No.  band energies     occupation 
      1      -3.2132      2.00000
      2       3.7540      2.00000
      3       4.8625      2.00000
      4       7.3226      2.00000
      5      12.3057      0.00000
      6      12.5270      0.00000
      7      13.7647      0.00000
      8      14.9517      0.00000

 k-point    56 :       0.4167    0.3333    0.0833
  band No.  band energies     occupation 
      1      -2.6136      2.00000
      2       3.3535      2.00000
      3       5.2262      2.00000
      4       5.7706      2.00000
      5      10.0092      0.00000
      6      10.9181      0.00000
      7      15.9079      0.00000
      8      17.2487      0.00000

 k-point    57 :       0.5000    0.3333    0.0833
  band No.  band energies     occupation 
      1      -1.8283      2.00000
      2       2.3024      2.00000
      3       4.4538      2.00000
      4       5.4654      2.00000
      5      10.2999      0.00000
      6      11.7284      0.00000
      7      15.5005      0.00000
      8      17.6829      0.00000

 k-point    58 :      -0.4167    0.3333    0.0833
  band No.  band energies     occupation 
      1      -1.0127      2.00000
      2       1.3163      2.00000
      3       3.7786      2.00000
      4       5.4876      2.00000
      5      10.4530      0.00000
      6      13.2677      0.00000
      7      15.1440      0.00000
      8      17.6365      0.00000

 k-point    59 :      -0.3333    0.3333    0.0833
  band No.  band energies     occupation 
      1      -0.8776      2.00000
      2       1.1836      2.00000
      3       3.3779      2.00000
      4       5.7583      2.00000
      5      10.7837      0.00000
      6      14.2609      0.00000
      7      15.4989      0.00000
      8      16.5639      0.00000

 k-point    60 :      -0.2500    0.3333    0.0833
  band No.  band energies     occupation 
      1      -1.6230      2.00000
      2       1.9792      2.00000
      3       3.4601      2.00000
      4       6.2201      2.00000
      5      11.2987      0.00000
      6      13.9355      0.00000
      7      14.8552      0.00000
      8      16.4440      0.00000

 k-point    61 :       0.5000    0.4167    0.0833
  band No.  band energies     occupation 
      1      -1.3373      2.00000
      2       1.7639      2.00000
      3       4.8634      2.00000
      4       5.0853      2.00000
      5       9.7251      0.00000
      6      10.1319      0.00000
      7      17.4443      0.00000
      8      19.1273      0.00000

 k-point    62 :      -0.4167    0.4167    0.0833
  band No.  band energies     occupation 
      1      -0.5016      2.00000
      2       0.9702      2.00000
      3       3.9421      2.00000
      4       5.0414      2.00000
      5       9.9948      0.00000
      6      11.3750      0.00000
      7      17.0226      0.00000
      8      18.7018      0.00000

 k-point    63 :      -0.3333    0.4167    0.0833
  band No.  band energies     occupation 
      1      -0.2035      2.00000
      2       0.7648      2.00000
      3       3.2360      2.00000
      4       5.3010      2.00000
      5      10.2911      0.00000
      6      13.1675      0.00000
      7      16.5709      0.00000
      8      16.7722      0.00000

 k-point    64 :      -0.4167    0.5000    0.0833
  band No.  band energies     occupation 
      1       0.1495      2.00000
      2       0.1495      2.00000
      3       4.8041      2.00000
      4       4.8041      2.00000
      5       9.7512      0.00000
      6       9.7512      0.00000
      7      19.1346      0.00000
      8      19.1346      0.00000

 k-point    65 :       0.5000    0.3333    0.1667
  band No.  band energies     occupation 
      1      -2.2271      2.00000
      2       2.7303      2.00000
      3       4.2496      2.00000
      4       5.8966      2.00000
      5      11.8119      0.00000
      6      12.3138      0.00000
      7      13.8576      0.00000
      8      16.9771      0.00000

 k-point    66 :      -0.4167    0.3333    0.1667
  band No.  band energies     occupation 
      1      -1.3907      2.00000
      2       1.7162      2.00000
      3       3.8546      2.00000
      4       5.4185      2.00000
      5      12.0292      0.00000
      6      12.8509      0.00000
      7      14.1837      0.00000
      8      17.2964      0.00000

 k-point    67 :      -0.3333    0.3333    0.1667
  band No.  band energies     occupation 
      1      -0.8632      2.00000
      2       1.0811      2.00000
      3       3.7805      2.00000
      4       5.2338      2.00000
      5      12.0441      0.00000
      6      12.8422      0.00000
      7      15.3859      0.00000
      8      16.4240      0.00000

 k-point    68 :      -0.4167    0.4167    0.1667
  band No.  band energies     occupation 
      1      -1.0219      2.00000
      2       1.6120      2.00000
      3       3.9604      2.00000
      4       4.7025      2.00000
      5      11.5303      0.00000
      6      11.7849      0.00000
      7      15.0365      0.00000
      8      18.2039      0.00000

 k-point    69 :      -0.3333    0.4167    0.1667
  band No.  band energies     occupation 
      1      -0.2923      2.00000
      2       0.9588      2.00000
      3       3.4907      2.00000
      4       4.5075      2.00000
      5      11.8289      0.00000
      6      13.2123      0.00000
      7      14.7742      0.00000
      8      16.2629      0.00000

 k-point    70 :      -0.2500    0.4167    0.1667
  band No.  band energies     occupation 
      1      -0.5873      2.00000
      2       1.2307      2.00000
      3       3.3243      2.00000
      4       4.8161      2.00000
      5      12.1482      0.00000
      6      13.5744      0.00000
      7      14.4874      0.00000
      8      15.9914      0.00000

 k-point    71 :      -0.3333    0.5000    0.1667
  band No.  band energies     occupation 
      1       0.3133      2.00000
      2       0.3133      2.00000
      3       4.0709      2.00000
      4       4.0709      2.00000
      5      11.5131      0.00000
      6      11.5131      0.00000
      7      16.5858      0.00000
      8      16.5858      0.00000

 k-point    72 :      -0.2500    0.5000    0.2500
  band No.  band energies     occupation 
      1       0.4082      2.00000
      2       0.4082      2.00000
      3       3.7538      2.00000
      4       3.7538      2.00000
      5      13.0996      0.00000
      6      13.0996      0.00000
      7      14.7422      0.00000
      8      14.7422      0.00000


--------------------------------------------------------------------------------------------------------


 soft charge-density along one line, spin component           1
         0         1         2         3         4         5         6         7         8         9
 total charge-density along one line
 
 pseudopotential strength for first ion, spin component:           1
 18.092  -0.004   0.000   0.000   0.000  -0.000  -0.000  -0.000
 -0.004   0.006  -0.000  -0.000  -0.000   0.000   0.000   0.000
  0.000  -0.000   4.150  -0.000  -0.000  -0.007   0.000   0.000
  0.000  -0.000  -0.000   4.150  -0.000   0.000  -0.007   0.000
  0.000  -0.000  -0.000  -0.000   4.150   0.000   0.000  -0.007
 -0.000   0.000  -0.007   0.000   0.000   0.005  -0.000  -0.000
 -0.000   0.000   0.000  -0.007   0.000  -0.000   0.005  -0.000
 -0.000   0.000   0.000   0.000  -0.007  -0.000  -0.000   0.005
 total augmentation occupancy for first ion, spin component:           1
  1.492  -1.192   0.000   0.000  -0.000   0.000   0.000   0.000
 -1.192   1.470   0.000   0.000   0.000  -0.000  -0.000  -0.000
  0.000   0.000   1.240   0.000   0.000  -0.800   0.000   0.000
  0.000   0.000   0.000   1.240   0.000   0.000  -0.800   0.000
  0.000   0.000   0.000   0.000   1.240   0.000   0.000  -0.800
  0.000  -0.000  -0.800   0.000   0.000   0.613  -0.000   0.000
  0.000  -0.000   0.000  -0.800   0.000   0.000   0.613  -0.000
  0.000  -0.000   0.000   0.000  -0.800  -0.000   0.000   0.613


------------------------ aborting loop because EDIFF is reached ----------------------------------------


    CHARGE:  cpu time    0.02: real time    0.02
    FORLOC:  cpu time    0.00: real time    0.00
    FORNL :  cpu time    0.02: real time    0.03
    STRESS:  cpu time    0.21: real time    0.21
    FORCOR:  cpu time    0.01: real time    0.01
    FORHAR:  cpu time    0.00: real time    0.00
    MIXING:  cpu time    0.00: real time    0.00
    OFIELD:  cpu time    0.00: real time    0.00

  FORCE on cell =-STRESS in cart. coord.  units (eV):
  Direction    XX          YY          ZZ          XY          YZ          ZX
  --------------------------------------------------------------------------------------
  Alpha Z     4.40008     4.40008     4.40008
  Ewald     -83.31973   -83.31973   -83.31973     0.00000     0.00000     0.00000
  Hartree     3.95060     3.95060     3.95060     0.00000     0.00000     0.00000
  E(xc)     -27.13943   -27.13943   -27.13943     0.00000     0.00000     0.00000
  Local     -25.96261   -25.96261   -25.96261     0.00001     0.00001     0.00001
  n-local    86.15969    87.72100    81.44165     2.96450    -1.81822     0.81024
  augment   -12.02610   -12.02610   -12.02610    -0.00001    -0.00001    -0.00001
  Kinetic    66.41177    60.84679    64.49906     3.60449    -0.11863     1.15802
  Fock        0.00000     0.00000     0.00000     0.00000     0.00000     0.00000
  -------------------------------------------------------------------------------------
  Total       8.92947     8.92947     8.92947     0.00000     0.00000     0.00000
  in kB     467.50101   467.50101   467.50101     0.00000     0.00000     0.00000
  external pressure =      467.50 kB  Pullay stress =        0.00 kB


 VOLUME and BASIS-vectors are now :
 -----------------------------------------------------------------------------
  energy-cutoff  :      600.00
  volume of cell :       30.60
      direct lattice vectors                 reciprocal lattice vectors
     0.000000000  2.482606158  2.482606158    -0.201401257  0.201401257  0.201401257
     2.482606158  0.000000000  2.482606158     0.201401257 -0.201401257  0.201401257
     2.482606158  2.482606158  0.000000000     0.201401257  0.201401257 -0.201401257

  length of vectors
     3.510935298  3.510935298  3.510935298     0.348837209  0.348837209  0.348837209


 FORCES acting on ions
    electron-ion (+dipol)            ewald-force                    non-local-force                 convergence-correction
 -----------------------------------------------------------------------------------------------
   -.661E-07 -.661E-07 -.679E-07   -.961E-15 -.602E-14 -.479E-14   0.139E-15 0.104E-15 0.486E-16   0.124E-14 -.165E-14 -.835E-15
   0.661E-07 0.661E-07 0.679E-07   0.126E-14 0.604E-14 0.491E-14   -.149E-15 -.798E-16 -.382E-16   -.122E-14 -.669E-15 -.391E-15
 -----------------------------------------------------------------------------------------------
   -.297E-13 0.199E-13 0.315E-13   0.297E-15 0.200E-16 0.121E-15   -.104E-16 0.243E-16 0.104E-16   0.138E-16 -.232E-14 -.123E-14
 
 
 POSITION                                       TOTAL-FORCE (eV/Angst)
 -----------------------------------------------------------------------------------
      0.00000      0.00000      0.00000        -0.000000      0.000000      0.000000
      1.24130      1.24130      1.24130         0.000000     -0.000000     -0.000000
 -----------------------------------------------------------------------------------
    total drift:                               -0.000000      0.000000      0.000000


--------------------------------------------------------------------------------------------------------



  FREE ENERGIE OF THE ION-ELECTRON SYSTEM (eV)
  ---------------------------------------------------
  free  energy   TOTEN  =        -9.67274731 eV

  energy  without entropy=       -9.67246361  energy(sigma->0) =       -9.67260546
 


--------------------------------------------------------------------------------------------------------


    POTLOK:  cpu time    0.02: real time    0.02


--------------------------------------------------------------------------------------------------------


 writing wavefunctions
     LOOP+:  cpu time    6.65: real time    7.32
    4ORBIT:  cpu time    0.00: real time    0.00

 total amount of memory used by VASP on root node    40187. kBytes
========================================================================

   base      :      30000. kBytes
   nonl-proj :       4807. kBytes
   fftplans  :       1025. kBytes
   grid      :       1926. kBytes
   one-center:          6. kBytes
   wavefun   :       2423. kBytes
 
  
  
 General timing and accounting informations for this job:
 ========================================================
  
                  Total CPU time used (sec):        6.964
                            User time (sec):        6.732
                          System time (sec):        0.232
                         Elapsed time (sec):        7.746
  
                   Maximum memory used (kb):       45708.
                   Average memory used (kb):           0.
  
                          Minor page faults:         6273
                          Major page faults:            5
                 Voluntary context switches:          532
