 vasp.5.3.5 31Mar14 (build Jun 01 2017 17:55:53) complex                        
  
 executed on             LinuxIFC date 2020.11.10  15:18:07
 running on    4 total cores
 distrk:  each k-point on    4 cores,    1 groups
 distr:  one band on NCORES_PER_BAND=   1 cores,    4 groups


--------------------------------------------------------------------------------------------------------


 INCAR:
 POTCAR:   PAW_PBE Si 05Jan2001                   
 POTCAR:   PAW_PBE Si 05Jan2001                   
   VRHFIN =Si: s2p2                                                             
   LEXCH  = PE                                                                  
   EATOM  =   103.0669 eV,    7.5752 Ry                                         
                                                                                
   TITEL  = PAW_PBE Si 05Jan2001                                                
   LULTRA =        F    use ultrasoft PP ?                                      
   IUNSCR =        1    unscreen: 0-lin 1-nonlin 2-no                           
   RPACOR =    1.500    partial core radius                                     
   POMASS =   28.085; ZVAL   =    4.000    mass and valenz                      
   RCORE  =    1.900    outmost cutoff radius                                   
   RWIGS  =    2.480; RWIGS  =    1.312    wigner-seitz radius (au A)           
   ENMAX  =  245.345; ENMIN  =  184.009 eV                                      
   ICORE  =        2    local potential                                         
   LCOR   =        T    correct aug charges                                     
   LPAW   =        T    paw PP                                                  
   EAUG   =  322.069                                                            
   DEXC   =    -.007                                                            
   RMAX   =    2.944    core radius for proj-oper                               
   RAUG   =    1.300    factor for augmentation sphere                          
   RDEP   =    1.993    radius for radial grids                                 
   QCUT   =   -4.246; QGAM   =    8.493    optimization parameters              
                                                                                
   Description                                                                  
     l     E      TYP  RCUT    TYP  RCUT                                        
     0   .000     23  1.900                                                     
     0   .000     23  1.900                                                     
     1   .000     23  1.900                                                     
     1   .000     23  1.900                                                     
     2   .000      7  1.900                                                     
  local pseudopotential read in
  partial core-charges read in
  atomic valenz-charges read in
  non local Contribution for L=           0  read in
    real space projection operators read in
  non local Contribution for L=           0  read in
    real space projection operators read in
  non local Contribution for L=           1  read in
    real space projection operators read in
  non local Contribution for L=           1  read in
    real space projection operators read in
    PAW grid and wavefunctions read in
 
   number of l-projection  operators is LMAX  =           4
   number of lm-projection operators is LMMAX =           8
 
 PAW_PBE Si 05Jan2001                   :
 energy of atom  1       EATOM= -103.0669
 kinetic energy error for atom=    0.0003 (will be added to EATOM!!)
 
 
 POSCAR: Si            
  positions in direct lattice
  velocities in cartesian coordinates
  No initial velocities read in
 exchange correlation table for  LEXCH =        8
   RHO(1)=    0.500       N(1)  =     2000
   RHO(2)=  100.500       N(2)  =     4000
 


--------------------------------------------------------------------------------------------------------


 ion  position               nearest neighbor table
   1  0.000  0.000  0.000-   2 2.55   2 2.55   2 2.55   2 2.55
   2  0.250  0.250  0.250-   1 2.55   1 2.55   1 2.55   1 2.55
 
  LATTYP: Found a face centered cubic cell.
 ALAT       =     5.8889727457
  
  Lattice vectors:
  
 A1 = (   0.0000000000,   2.9444863729,   2.9444863729)
 A2 = (   2.9444863729,   0.0000000000,   2.9444863729)
 A3 = (   2.9444863729,   2.9444863729,   0.0000000000)


Analysis of symmetry for initial positions (statically):
=====================================================================
 Subroutine PRICEL returns:
 Original cell was already a primitive cell.
 

 Routine SETGRP: Setting up the symmetry group for a 
 face centered cubic supercell.


 Subroutine GETGRP returns: Found 48 space group operations
 (whereof 24 operations were pure point group operations)
 out of a pool of 48 trial point group operations.


The static configuration has the point symmetry T_d .
 The point group associated with its full space group is O_h .


Analysis of symmetry for dynamics (positions and initial velocities):
=====================================================================
 Subroutine PRICEL returns:
 Original cell was already a primitive cell.
 

 Routine SETGRP: Setting up the symmetry group for a 
 face centered cubic supercell.


 Subroutine GETGRP returns: Found 48 space group operations
 (whereof 24 operations were pure point group operations)
 out of a pool of 48 trial point group operations.


The dynamic configuration has the point symmetry T_d .
 The point group associated with its full space group is O_h .


Analysis of constrained symmetry for selective dynamics:
=====================================================================
 Subroutine PRICEL returns:
 Original cell was already a primitive cell.
 

 Routine SETGRP: Setting up the symmetry group for a 
 face centered cubic supercell.


 Subroutine GETGRP returns: Found 48 space group operations
 (whereof 24 operations were pure point group operations)
 out of a pool of 48 trial point group operations.


The constrained configuration has the point symmetry T_d .
 The point group associated with its full space group is O_h .
 
 
 KPOINTS: Gamma centered Monkhorst-Pack           

Automatic generation of k-mesh.
Space group operators:
 irot       det(A)        alpha          n_x          n_y          n_z        tau_x        tau_y        tau_z
    1     1.000000     0.000001     1.000000     0.000000     0.000000     0.000000     0.000000     0.000000
    2     1.000000   120.000000    -0.577350    -0.577350    -0.577350     0.000000     0.000000     0.000000
    3     1.000000   120.000000     0.577350     0.577350     0.577350     0.000000     0.000000     0.000000
    4    -1.000000    90.000000     0.000000     0.000000    -1.000000     0.000000     0.000000     0.000000
    5    -1.000000   180.000000     0.000000     0.707107     0.707107     0.000000     0.000000     0.000000
    6    -1.000000    90.000000     0.000000     1.000000     0.000000     0.000000     0.000000     0.000000
    7     1.000000   180.000000     0.000000     0.000000     1.000000     0.000000     0.000000     0.000000
    8     1.000000   120.000000    -0.577350     0.577350     0.577350     0.000000     0.000000     0.000000
    9     1.000000   120.000000    -0.577350     0.577350    -0.577350     0.000000     0.000000     0.000000
   10    -1.000000    90.000000     0.000000     0.000000     1.000000     0.000000     0.000000     0.000000
   11    -1.000000    90.000000    -1.000000     0.000000     0.000000     0.000000     0.000000     0.000000
   12    -1.000000   180.000000     0.707107     0.000000     0.707107     0.000000     0.000000     0.000000
   13     1.000000   120.000000     0.577350    -0.577350     0.577350     0.000000     0.000000     0.000000
   14     1.000000   120.000000    -0.577350    -0.577350     0.577350     0.000000     0.000000     0.000000
   15     1.000000   180.000000     1.000000     0.000000     0.000000     0.000000     0.000000     0.000000
   16    -1.000000    90.000000     0.000000    -1.000000     0.000000     0.000000     0.000000     0.000000
   17    -1.000000   180.000000     0.707107     0.707107     0.000000     0.000000     0.000000     0.000000
   18    -1.000000    90.000000     1.000000     0.000000     0.000000     0.000000     0.000000     0.000000
   19     1.000000   120.000000     0.577350    -0.577350    -0.577350     0.000000     0.000000     0.000000
   20     1.000000   180.000000     0.000000     1.000000     0.000000     0.000000     0.000000     0.000000
   21     1.000000   120.000000     0.577350     0.577350    -0.577350     0.000000     0.000000     0.000000
   22    -1.000000   180.000000     0.000000    -0.707107     0.707107     0.000000     0.000000     0.000000
   23    -1.000000   180.000000     0.707107    -0.707107     0.000000     0.000000     0.000000     0.000000
   24    -1.000000   180.000000     0.707107     0.000000    -0.707107     0.000000     0.000000     0.000000
   25    -1.000000     0.000001     1.000000     0.000000     0.000000     0.250000     0.250000     0.250000
   26    -1.000000   120.000000    -0.577350    -0.577350    -0.577350     0.250000     0.250000     0.250000
   27    -1.000000   120.000000     0.577350     0.577350     0.577350     0.250000     0.250000     0.250000
   28     1.000000    90.000000     0.000000     0.000000    -1.000000     0.250000     0.250000     0.250000
   29     1.000000   180.000000     0.000000     0.707107     0.707107     0.250000     0.250000     0.250000
   30     1.000000    90.000000     0.000000     1.000000     0.000000     0.250000     0.250000     0.250000
   31    -1.000000   180.000000     0.000000     0.000000     1.000000     0.250000     0.250000     0.250000
   32    -1.000000   120.000000    -0.577350     0.577350     0.577350     0.250000     0.250000     0.250000
   33    -1.000000   120.000000    -0.577350     0.577350    -0.577350     0.250000     0.250000     0.250000
   34     1.000000    90.000000     0.000000     0.000000     1.000000     0.250000     0.250000     0.250000
   35     1.000000    90.000000    -1.000000     0.000000     0.000000     0.250000     0.250000     0.250000
   36     1.000000   180.000000     0.707107     0.000000     0.707107     0.250000     0.250000     0.250000
   37    -1.000000   120.000000     0.577350    -0.577350     0.577350     0.250000     0.250000     0.250000
   38    -1.000000   120.000000    -0.577350    -0.577350     0.577350     0.250000     0.250000     0.250000
   39    -1.000000   180.000000     1.000000     0.000000     0.000000     0.250000     0.250000     0.250000
   40     1.000000    90.000000     0.000000    -1.000000     0.000000     0.250000     0.250000     0.250000
   41     1.000000   180.000000     0.707107     0.707107     0.000000     0.250000     0.250000     0.250000
   42     1.000000    90.000000     1.000000     0.000000     0.000000     0.250000     0.250000     0.250000
   43    -1.000000   120.000000     0.577350    -0.577350    -0.577350     0.250000     0.250000     0.250000
   44    -1.000000   180.000000     0.000000     1.000000     0.000000     0.250000     0.250000     0.250000
   45    -1.000000   120.000000     0.577350     0.577350    -0.577350     0.250000     0.250000     0.250000
   46     1.000000   180.000000     0.000000    -0.707107     0.707107     0.250000     0.250000     0.250000
   47     1.000000   180.000000     0.707107    -0.707107     0.000000     0.250000     0.250000     0.250000
   48     1.000000   180.000000     0.707107     0.000000    -0.707107     0.250000     0.250000     0.250000
 
 Subroutine IBZKPT returns following result:
 ===========================================
 
 Found     72 irreducible k-points:
 
 Following reciprocal coordinates:
            Coordinates               Weight
  0.000000  0.000000  0.000000      1.000000
  0.083333  0.000000  0.000000      8.000000
  0.166667  0.000000  0.000000      8.000000
  0.250000  0.000000  0.000000      8.000000
  0.333333  0.000000  0.000000      8.000000
  0.416667  0.000000  0.000000      8.000000
  0.500000  0.000000  0.000000      4.000000
  0.083333  0.083333  0.000000      6.000000
  0.166667  0.083333  0.000000     24.000000
  0.250000  0.083333  0.000000     24.000000
  0.333333  0.083333  0.000000     24.000000
  0.416667  0.083333  0.000000     24.000000
  0.500000  0.083333  0.000000     24.000000
 -0.416667  0.083333  0.000000     24.000000
 -0.333333  0.083333  0.000000     24.000000
 -0.250000  0.083333  0.000000     24.000000
 -0.166667  0.083333  0.000000     24.000000
 -0.083333  0.083333  0.000000     12.000000
  0.166667  0.166667  0.000000      6.000000
  0.250000  0.166667  0.000000     24.000000
  0.333333  0.166667  0.000000     24.000000
  0.416667  0.166667  0.000000     24.000000
  0.500000  0.166667  0.000000     24.000000
 -0.416667  0.166667  0.000000     24.000000
 -0.333333  0.166667  0.000000     24.000000
 -0.250000  0.166667  0.000000     24.000000
 -0.166667  0.166667  0.000000     12.000000
  0.250000  0.250000  0.000000      6.000000
  0.333333  0.250000  0.000000     24.000000
  0.416667  0.250000  0.000000     24.000000
  0.500000  0.250000  0.000000     24.000000
 -0.416667  0.250000  0.000000     24.000000
 -0.333333  0.250000  0.000000     24.000000
 -0.250000  0.250000  0.000000     12.000000
  0.333333  0.333333  0.000000      6.000000
  0.416667  0.333333  0.000000     24.000000
  0.500000  0.333333  0.000000     24.000000
 -0.416667  0.333333  0.000000     24.000000
 -0.333333  0.333333  0.000000     12.000000
  0.416667  0.416667  0.000000      6.000000
  0.500000  0.416667  0.000000     24.000000
 -0.416667  0.416667  0.000000     12.000000
  0.500000  0.500000  0.000000      3.000000
  0.250000  0.166667  0.083333     24.000000
  0.333333  0.166667  0.083333     48.000000
  0.416667  0.166667  0.083333     48.000000
  0.500000  0.166667  0.083333     48.000000
 -0.416667  0.166667  0.083333     24.000000
  0.333333  0.250000  0.083333     24.000000
  0.416667  0.250000  0.083333     48.000000
  0.500000  0.250000  0.083333     48.000000
 -0.416667  0.250000  0.083333     48.000000
 -0.333333  0.250000  0.083333     48.000000
 -0.250000  0.250000  0.083333     48.000000
 -0.166667  0.250000  0.083333     24.000000
  0.416667  0.333333  0.083333     24.000000
  0.500000  0.333333  0.083333     48.000000
 -0.416667  0.333333  0.083333     48.000000
 -0.333333  0.333333  0.083333     48.000000
 -0.250000  0.333333  0.083333     24.000000
  0.500000  0.416667  0.083333     24.000000
 -0.416667  0.416667  0.083333     48.000000
 -0.333333  0.416667  0.083333     24.000000
 -0.416667  0.500000  0.083333     12.000000
  0.500000  0.333333  0.166667     24.000000
 -0.416667  0.333333  0.166667     48.000000
 -0.333333  0.333333  0.166667     24.000000
 -0.416667  0.416667  0.166667     24.000000
 -0.333333  0.416667  0.166667     48.000000
 -0.250000  0.416667  0.166667     24.000000
 -0.333333  0.500000  0.166667     12.000000
 -0.250000  0.500000  0.250000      6.000000
 
 Following cartesian coordinates:
            Coordinates               Weight
  0.000000  0.000000  0.000000      1.000000
 -0.083333  0.083333  0.083333      8.000000
 -0.166667  0.166667  0.166667      8.000000
 -0.250000  0.250000  0.250000      8.000000
 -0.333333  0.333333  0.333333      8.000000
 -0.416667  0.416667  0.416667      8.000000
 -0.500000  0.500000  0.500000      4.000000
  0.000000  0.000000  0.166667      6.000000
 -0.083333  0.083333  0.250000     24.000000
 -0.166667  0.166667  0.333333     24.000000
 -0.250000  0.250000  0.416667     24.000000
 -0.333333  0.333333  0.500000     24.000000
 -0.416667  0.416667  0.583333     24.000000
  0.500000 -0.500000 -0.333333     24.000000
  0.416667 -0.416667 -0.250000     24.000000
  0.333333 -0.333333 -0.166667     24.000000
  0.250000 -0.250000 -0.083333     24.000000
  0.166667 -0.166667  0.000000     12.000000
  0.000000  0.000000  0.333333      6.000000
 -0.083333  0.083333  0.416667     24.000000
 -0.166667  0.166667  0.500000     24.000000
 -0.250000  0.250000  0.583333     24.000000
 -0.333333  0.333333  0.666667     24.000000
  0.583333 -0.583333 -0.250000     24.000000
  0.500000 -0.500000 -0.166667     24.000000
  0.416667 -0.416667 -0.083333     24.000000
  0.333333 -0.333333  0.000000     12.000000
  0.000000  0.000000  0.500000      6.000000
 -0.083333  0.083333  0.583333     24.000000
 -0.166667  0.166667  0.666667     24.000000
 -0.250000  0.250000  0.750000     24.000000
  0.666667 -0.666667 -0.166667     24.000000
  0.583333 -0.583333 -0.083333     24.000000
  0.500000 -0.500000  0.000000     12.000000
  0.000000  0.000000  0.666667      6.000000
 -0.083333  0.083333  0.750000     24.000000
 -0.166667  0.166667  0.833333     24.000000
  0.750000 -0.750000 -0.083333     24.000000
  0.666667 -0.666667  0.000000     12.000000
  0.000000  0.000000  0.833333      6.000000
 -0.083333  0.083333  0.916667     24.000000
  0.833333 -0.833333  0.000000     12.000000
  0.000000  0.000000  1.000000      3.000000
  0.000000  0.166667  0.333333     24.000000
 -0.083333  0.250000  0.416667     48.000000
 -0.166667  0.333333  0.500000     48.000000
 -0.250000  0.416667  0.583333     48.000000
  0.666667 -0.500000 -0.333333     24.000000
  0.000000  0.166667  0.500000     24.000000
 -0.083333  0.250000  0.583333     48.000000
 -0.166667  0.333333  0.666667     48.000000
  0.750000 -0.583333 -0.250000     48.000000
  0.666667 -0.500000 -0.166667     48.000000
  0.583333 -0.416667 -0.083333     48.000000
  0.500000 -0.333333  0.000000     24.000000
 -0.000000  0.166667  0.666667     24.000000
 -0.083333  0.250000  0.750000     48.000000
  0.833333 -0.666667 -0.166667     48.000000
  0.750000 -0.583333 -0.083333     48.000000
  0.666667 -0.500000  0.000000     24.000000
  0.000000  0.166667  0.833333     24.000000
  0.916667 -0.750000 -0.083333     48.000000
  0.833333 -0.666667  0.000000     24.000000
  1.000000 -0.833333  0.000000     12.000000
  0.000000  0.333333  0.666667     24.000000
  0.916667 -0.583333 -0.250000     48.000000
  0.833333 -0.500000 -0.166667     24.000000
  1.000000 -0.666667 -0.166667     24.000000
  0.916667 -0.583333 -0.083333     48.000000
  0.833333 -0.500000  0.000000     24.000000
  1.000000 -0.666667  0.000000     12.000000
  1.000000 -0.500000  0.000000      6.000000
 


--------------------------------------------------------------------------------------------------------




 Dimension of arrays:
   k-points           NKPTS =     72   k-points in BZ     NKDIM =     72   number of bands    NBANDS=      8
   number of dos      NEDOS =    301   number of ions     NIONS =      2
   non local maximal  LDIM  =      4   non local SUM 2l+1 LMDIM =      8
   total plane-waves  NPLWV =  21952
   max r-space proj   IRMAX =      1   max aug-charges    IRDMAX=  14573
   dimension x,y,z NGX =    28 NGY =   28 NGZ =   28
   dimension x,y,z NGXF=    56 NGYF=   56 NGZF=   56
   support grid    NGXF=    56 NGYF=   56 NGZF=   56
   ions per type =               2
 NGX,Y,Z   is equivalent  to a cutoff of  11.18, 11.18, 11.18 a.u.
 NGXF,Y,Z  is equivalent  to a cutoff of  22.36, 22.36, 22.36 a.u.


 I would recommend the setting:
   dimension x,y,z NGX =    25 NGY =   25 NGZ =   25
 SYSTEM =  Si
 POSCAR =  Si

 Startparameter for this run:
   NWRITE =      2    write-flag & timer
   PREC   = normal    normal or accurate (medium, high low for compatibility)
   ISTART =      0    job   : 0-new  1-cont  2-samecut
   ICHARG =      2    charge: 1-file 2-atom 10-const
   ISPIN  =      1    spin polarized calculation?
   LNONCOLLINEAR =      F non collinear calculations
   LSORBIT =      F    spin-orbit coupling
   INIWAV =      1    electr: 0-lowe 1-rand  2-diag
   LASPH  =      F    aspherical Exc in radial PAW
   METAGGA=      F    non-selfconsistent MetaGGA calc.

 Electronic Relaxation 1
   ENCUT  =  600.0 eV  44.10 Ry    6.64 a.u.   8.32  8.32  8.32*2*pi/ulx,y,z
   ENINI  =  600.0     initial cutoff
   ENAUG  = 1200.0 eV  augmentation charge cutoff
   NELM   =    500;   NELMIN=  2; NELMDL= -5     # of ELM steps 
   EDIFF  = 0.1E-09   stopping-criterion for ELM
   LREAL  =      F    real-space projection
   NLSPLINE    = F    spline interpolate recip. space projectors
   LCOMPAT=      F    compatible to vasp.4.4
   GGA_COMPAT  = T    GGA compatible to vasp.4.4-vasp.4.6
   LMAXPAW     = -100 max onsite density
   LMAXMIX     =    2 max onsite mixed and CHGCAR
   VOSKOWN=      0    Vosko Wilk Nusair interpolation
   ROPT   =    0.00000
 Ionic relaxation
   EDIFFG = 0.1E-08   stopping-criterion for IOM
   NSW    =      0    number of steps for IOM
   NBLOCK =      1;   KBLOCK =      1    inner block; outer block 
   IBRION =     -1    ionic relax: 0-MD 1-quasi-New 2-CG
   NFREE  =      0    steps in history (QN), initial steepest desc. (CG)
   ISIF   =      2    stress and relaxation
   IWAVPR =     10    prediction:  0-non 1-charg 2-wave 3-comb
   ISYM   =      2    0-nonsym 1-usesym 2-fastsym
   LCORR  =      T    Harris-Foulkes like correction to forces

   POTIM  = 0.5000    time-step for ionic-motion
   TEIN   =    0.0    initial temperature
   TEBEG  =    0.0;   TEEND  =   0.0 temperature during run
   SMASS  =  -3.00    Nose mass-parameter (am)
   estimated Nose-frequenzy (Omega)   =  0.10E-29 period in steps =****** mass=  -0.396E-27a.u.
   SCALEE = 1.0000    scale energy and forces
   NPACO  =    256;   APACO  = 16.0  distance and # of slots for P.C.
   PSTRESS=    0.0 pullay stress

  Mass of Ions in am
   POMASS =  28.09
  Ionic Valenz
   ZVAL   =   4.00
  Atomic Wigner-Seitz radii
   RWIGS  =  -1.00
  virtual crystal weights 
   VCA    =   1.00
   NELECT =       8.0000    total number of electrons
   NUPDOWN=      -1.0000    fix difference up-down

 DOS related values:
   EMIN   =  10.00;   EMAX   =-10.00  energy-range for DOS
   EFERMI =   0.00
   ISMEAR =    -1;   SIGMA  =   0.03  broadening in eV -4-tet -1-fermi 0-gaus

 Electronic relaxation 2 (details)
   IALGO  =     38    algorithm
   LDIAG  =      T    sub-space diagonalisation (order eigenvalues)
   LSUBROT=      F    optimize rotation matrix (better conditioning)
   TURBO    =      0    0=normal 1=particle mesh
   IRESTART =      0    0=no restart 2=restart with 2 vectors
   NREBOOT  =      0    no. of reboots
   NMIN     =      0    reboot dimension
   EREF     =   0.00    reference energy to select bands
   IMIX   =      4    mixing-type and parameters
     AMIX     =   0.40;   BMIX     =  1.00
     AMIX_MAG =   1.60;   BMIX_MAG =  1.00
     AMIN     =   0.10
     WC   =   100.;   INIMIX=   1;  MIXPRE=   1;  MAXMIX= -45

 Intra band minimization:
   WEIMIN = 0.0000     energy-eigenvalue tresh-hold
   EBREAK =  0.31E-11  absolut break condition
   DEPER  =   0.30     relativ break condition  

   TIME   =   0.40     timestep for ELM

  volume/ion in A,a.u.               =      25.53       172.28
  Fermi-wavevector in a.u.,A,eV,Ry     =   0.882576  1.667826 10.598119  0.778940
  Thomas-Fermi vector in A             =   2.003226
 
 Write flags
   LWAVE  =      T    write WAVECAR
   LCHARG =      T    write CHGCAR
   LVTOT  =      F    write LOCPOT, total local potential
   LVHAR  =      F    write LOCPOT, Hartree potential only
   LELF   =      F    write electronic localiz. function (ELF)
   LORBIT =      0    0 simple, 1 ext, 2 COOP (PROOUT)


 Dipole corrections
   LMONO  =      F    monopole corrections only (constant potential shift)
   LDIPOL =      F    correct potential (dipole corrections)
   IDIPOL =      0    1-x, 2-y, 3-z, 4-all directions 
   EPSILON=  1.0000000 bulk dielectric constant

 Exchange correlation treatment:
   GGA     =    PE    GGA type
   LEXCH   =     8    internal setting for exchange type
   VOSKOWN=      0    Vosko Wilk Nusair interpolation
   LHFCALC =     F    Hartree Fock is set to
   LHFONE  =     F    Hartree Fock one center treatment
   AEXX    =    0.0000 exact exchange contribution

 Linear response parameters
   LEPSILON=     F    determine dielectric tensor
   LRPA    =     F    only Hartree local field effects (RPA)
   LNABLA  =     F    use nabla operator in PAW spheres
   LVEL    =     F    velocity operator in full k-point grid
   LINTERFAST=   F  fast interpolation
   KINTER  =     0    interpolate to denser k-point grid
   CSHIFT  =0.1000    complex shift for real part using Kramers Kronig
   OMEGAMAX=  -1.0    maximum frequency
   DEG_THRESHOLD= 0.2000000E-02 threshold for treating states as degnerate
   RTIME   =    0.100 relaxation time in fs

 Orbital magnetization related:
   ORBITALMAG=     F  switch on orbital magnetization
   LCHIMAG   =     F  perturbation theory with respect to B field
   DQ        =  0.001000  dq finite difference perturbation B field



--------------------------------------------------------------------------------------------------------


 Static calculation
 charge density and potential will be updated during run
 non-spin polarized calculation
 Variant of blocked Davidson
 Davidson routine will perform the subspace rotation
 perform sub-space diagonalisation
    after iterative eigenvector-optimisation
 modified Broyden-mixing scheme, WC =      100.0
 initial mixing is a Kerker type mixing with AMIX =  0.4000 and BMIX =      1.0000
 Hartree-type preconditioning will be used
 using additional bands            4
 reciprocal scheme for non local part
 use partial core corrections
 calculate Harris-corrections to forces 
   (improved forces if not selfconsistent)
 use gradient corrections 
 use of overlap-Matrix (Vanderbilt PP)
 Fermi-smearing in eV        SIGMA  =   0.03


--------------------------------------------------------------------------------------------------------


  energy-cutoff  :      600.00
  volume of cell :       51.06
      direct lattice vectors                 reciprocal lattice vectors
     0.000000000  2.944486373  2.944486373    -0.169808903  0.169808903  0.169808903
     2.944486373  0.000000000  2.944486373     0.169808903 -0.169808903  0.169808903
     2.944486373  2.944486373  0.000000000     0.169808903  0.169808903 -0.169808903

  length of vectors
     4.164132563  4.164132563  4.164132563     0.294117647  0.294117647  0.294117647


 
 k-points in units of 2pi/SCALE and weight: Gamma centered Monkhorst-Pack           
   0.00000000  0.00000000  0.00000000       0.001
  -0.08333333  0.08333333  0.08333333       0.005
  -0.16666667  0.16666667  0.16666667       0.005
  -0.25000000  0.25000000  0.25000000       0.005
  -0.33333333  0.33333333  0.33333333       0.005
  -0.41666667  0.41666667  0.41666667       0.005
  -0.50000000  0.50000000  0.50000000       0.002
   0.00000000  0.00000000  0.16666667       0.003
  -0.08333333  0.08333333  0.25000000       0.014
  -0.16666667  0.16666667  0.33333333       0.014
  -0.25000000  0.25000000  0.41666667       0.014
  -0.33333333  0.33333333  0.50000000       0.014
  -0.41666667  0.41666667  0.58333333       0.014
   0.50000000 -0.50000000 -0.33333333       0.014
   0.41666667 -0.41666667 -0.25000000       0.014
   0.33333333 -0.33333333 -0.16666667       0.014
   0.25000000 -0.25000000 -0.08333333       0.014
   0.16666667 -0.16666667  0.00000000       0.007
   0.00000000  0.00000000  0.33333333       0.003
  -0.08333333  0.08333333  0.41666667       0.014
  -0.16666667  0.16666667  0.50000000       0.014
  -0.25000000  0.25000000  0.58333333       0.014
  -0.33333333  0.33333333  0.66666667       0.014
   0.58333333 -0.58333333 -0.25000000       0.014
   0.50000000 -0.50000000 -0.16666667       0.014
   0.41666667 -0.41666667 -0.08333333       0.014
   0.33333333 -0.33333333  0.00000000       0.007
   0.00000000  0.00000000  0.50000000       0.003
  -0.08333333  0.08333333  0.58333333       0.014
  -0.16666667  0.16666667  0.66666667       0.014
  -0.25000000  0.25000000  0.75000000       0.014
   0.66666667 -0.66666667 -0.16666667       0.014
   0.58333333 -0.58333333 -0.08333333       0.014
   0.50000000 -0.50000000  0.00000000       0.007
   0.00000000  0.00000000  0.66666667       0.003
  -0.08333333  0.08333333  0.75000000       0.014
  -0.16666667  0.16666667  0.83333333       0.014
   0.75000000 -0.75000000 -0.08333333       0.014
   0.66666667 -0.66666667  0.00000000       0.007
   0.00000000  0.00000000  0.83333333       0.003
  -0.08333333  0.08333333  0.91666667       0.014
   0.83333333 -0.83333333  0.00000000       0.007
   0.00000000  0.00000000  1.00000000       0.002
   0.00000000  0.16666667  0.33333333       0.014
  -0.08333333  0.25000000  0.41666667       0.028
  -0.16666667  0.33333333  0.50000000       0.028
  -0.25000000  0.41666667  0.58333333       0.028
   0.66666667 -0.50000000 -0.33333333       0.014
   0.00000000  0.16666667  0.50000000       0.014
  -0.08333333  0.25000000  0.58333333       0.028
  -0.16666667  0.33333333  0.66666667       0.028
   0.75000000 -0.58333333 -0.25000000       0.028
   0.66666667 -0.50000000 -0.16666667       0.028
   0.58333333 -0.41666667 -0.08333333       0.028
   0.50000000 -0.33333333  0.00000000       0.014
  -0.00000000  0.16666667  0.66666667       0.014
  -0.08333333  0.25000000  0.75000000       0.028
   0.83333333 -0.66666667 -0.16666667       0.028
   0.75000000 -0.58333333 -0.08333333       0.028
   0.66666667 -0.50000000  0.00000000       0.014
   0.00000000  0.16666667  0.83333333       0.014
   0.91666667 -0.75000000 -0.08333333       0.028
   0.83333333 -0.66666667  0.00000000       0.014
   1.00000000 -0.83333333  0.00000000       0.007
   0.00000000  0.33333333  0.66666667       0.014
   0.91666667 -0.58333333 -0.25000000       0.028
   0.83333333 -0.50000000 -0.16666667       0.014
   1.00000000 -0.66666667 -0.16666667       0.014
   0.91666667 -0.58333333 -0.08333333       0.028
   0.83333333 -0.50000000  0.00000000       0.014
   1.00000000 -0.66666667  0.00000000       0.007
   1.00000000 -0.50000000  0.00000000       0.003
 
 k-points in reciprocal lattice and weights: Gamma centered Monkhorst-Pack           
   0.00000000  0.00000000  0.00000000       0.001
   0.08333333  0.00000000  0.00000000       0.005
   0.16666667  0.00000000  0.00000000       0.005
   0.25000000  0.00000000  0.00000000       0.005
   0.33333333  0.00000000  0.00000000       0.005
   0.41666667  0.00000000  0.00000000       0.005
   0.50000000  0.00000000  0.00000000       0.002
   0.08333333  0.08333333  0.00000000       0.003
   0.16666667  0.08333333  0.00000000       0.014
   0.25000000  0.08333333  0.00000000       0.014
   0.33333333  0.08333333  0.00000000       0.014
   0.41666667  0.08333333  0.00000000       0.014
   0.50000000  0.08333333  0.00000000       0.014
  -0.41666667  0.08333333  0.00000000       0.014
  -0.33333333  0.08333333  0.00000000       0.014
  -0.25000000  0.08333333  0.00000000       0.014
  -0.16666667  0.08333333  0.00000000       0.014
  -0.08333333  0.08333333  0.00000000       0.007
   0.16666667  0.16666667  0.00000000       0.003
   0.25000000  0.16666667  0.00000000       0.014
   0.33333333  0.16666667  0.00000000       0.014
   0.41666667  0.16666667  0.00000000       0.014
   0.50000000  0.16666667  0.00000000       0.014
  -0.41666667  0.16666667  0.00000000       0.014
  -0.33333333  0.16666667  0.00000000       0.014
  -0.25000000  0.16666667  0.00000000       0.014
  -0.16666667  0.16666667  0.00000000       0.007
   0.25000000  0.25000000  0.00000000       0.003
   0.33333333  0.25000000  0.00000000       0.014
   0.41666667  0.25000000  0.00000000       0.014
   0.50000000  0.25000000  0.00000000       0.014
  -0.41666667  0.25000000  0.00000000       0.014
  -0.33333333  0.25000000  0.00000000       0.014
  -0.25000000  0.25000000  0.00000000       0.007
   0.33333333  0.33333333  0.00000000       0.003
   0.41666667  0.33333333  0.00000000       0.014
   0.50000000  0.33333333  0.00000000       0.014
  -0.41666667  0.33333333  0.00000000       0.014
  -0.33333333  0.33333333  0.00000000       0.007
   0.41666667  0.41666667  0.00000000       0.003
   0.50000000  0.41666667  0.00000000       0.014
  -0.41666667  0.41666667  0.00000000       0.007
   0.50000000  0.50000000  0.00000000       0.002
   0.25000000  0.16666667  0.08333333       0.014
   0.33333333  0.16666667  0.08333333       0.028
   0.41666667  0.16666667  0.08333333       0.028
   0.50000000  0.16666667  0.08333333       0.028
  -0.41666667  0.16666667  0.08333333       0.014
   0.33333333  0.25000000  0.08333333       0.014
   0.41666667  0.25000000  0.08333333       0.028
   0.50000000  0.25000000  0.08333333       0.028
  -0.41666667  0.25000000  0.08333333       0.028
  -0.33333333  0.25000000  0.08333333       0.028
  -0.25000000  0.25000000  0.08333333       0.028
  -0.16666667  0.25000000  0.08333333       0.014
   0.41666667  0.33333333  0.08333333       0.014
   0.50000000  0.33333333  0.08333333       0.028
  -0.41666667  0.33333333  0.08333333       0.028
  -0.33333333  0.33333333  0.08333333       0.028
  -0.25000000  0.33333333  0.08333333       0.014
   0.50000000  0.41666667  0.08333333       0.014
  -0.41666667  0.41666667  0.08333333       0.028
  -0.33333333  0.41666667  0.08333333       0.014
  -0.41666667  0.50000000  0.08333333       0.007
   0.50000000  0.33333333  0.16666667       0.014
  -0.41666667  0.33333333  0.16666667       0.028
  -0.33333333  0.33333333  0.16666667       0.014
  -0.41666667  0.41666667  0.16666667       0.014
  -0.33333333  0.41666667  0.16666667       0.028
  -0.25000000  0.41666667  0.16666667       0.014
  -0.33333333  0.50000000  0.16666667       0.007
  -0.25000000  0.50000000  0.25000000       0.003
 
 position of ions in fractional coordinates (direct lattice) 
   0.00000000  0.00000000  0.00000000
   0.25000000  0.25000000  0.25000000
 
 position of ions in cartesian coordinates  (Angst):
   0.00000000  0.00000000  0.00000000
   1.47224319  1.47224319  1.47224319
 


--------------------------------------------------------------------------------------------------------


 k-point  1 :   0.0000 0.0000 0.0000  plane waves:    1687
 k-point  2 :   0.0833 0.0000 0.0000  plane waves:    1720
 k-point  3 :   0.1667 0.0000 0.0000  plane waves:    1723
 k-point  4 :   0.2500 0.0000 0.0000  plane waves:    1700
 k-point  5 :   0.3333 0.0000 0.0000  plane waves:    1688
 k-point  6 :   0.4167 0.0000 0.0000  plane waves:    1691
 k-point  7 :   0.5000 0.0000 0.0000  plane waves:    1694
 k-point  8 :   0.0833 0.0833 0.0000  plane waves:    1731
 k-point  9 :   0.1667 0.0833 0.0000  plane waves:    1720
 k-point 10 :   0.2500 0.0833 0.0000  plane waves:    1704
 k-point 11 :   0.3333 0.0833 0.0000  plane waves:    1695
 k-point 12 :   0.4167 0.0833 0.0000  plane waves:    1698
 k-point 13 :   0.5000 0.0833 0.0000  plane waves:    1713
 k-point 14 :  -0.4167 0.0833 0.0000  plane waves:    1710
 k-point 15 :  -0.3333 0.0833 0.0000  plane waves:    1698
 k-point 16 :  -0.2500 0.0833 0.0000  plane waves:    1698
 k-point 17 :  -0.1667 0.0833 0.0000  plane waves:    1717
 k-point 18 :  -0.0833 0.0833 0.0000  plane waves:    1721
 k-point 19 :   0.1667 0.1667 0.0000  plane waves:    1708
 k-point 20 :   0.2500 0.1667 0.0000  plane waves:    1704
 k-point 21 :   0.3333 0.1667 0.0000  plane waves:    1712
 k-point 22 :   0.4167 0.1667 0.0000  plane waves:    1699
 k-point 23 :   0.5000 0.1667 0.0000  plane waves:    1717
 k-point 24 :  -0.4167 0.1667 0.0000  plane waves:    1712
 k-point 25 :  -0.3333 0.1667 0.0000  plane waves:    1702
 k-point 26 :  -0.2500 0.1667 0.0000  plane waves:    1706
 k-point 27 :  -0.1667 0.1667 0.0000  plane waves:    1714
 k-point 28 :   0.2500 0.2500 0.0000  plane waves:    1716
 k-point 29 :   0.3333 0.2500 0.0000  plane waves:    1701
 k-point 30 :   0.4167 0.2500 0.0000  plane waves:    1706
 k-point 31 :   0.5000 0.2500 0.0000  plane waves:    1703
 k-point 32 :  -0.4167 0.2500 0.0000  plane waves:    1708
 k-point 33 :  -0.3333 0.2500 0.0000  plane waves:    1712
 k-point 34 :  -0.2500 0.2500 0.0000  plane waves:    1696
 k-point 35 :   0.3333 0.3333 0.0000  plane waves:    1712
 k-point 36 :   0.4167 0.3333 0.0000  plane waves:    1704
 k-point 37 :   0.5000 0.3333 0.0000  plane waves:    1699
 k-point 38 :  -0.4167 0.3333 0.0000  plane waves:    1702
 k-point 39 :  -0.3333 0.3333 0.0000  plane waves:    1700
 k-point 40 :   0.4167 0.4167 0.0000  plane waves:    1712
 k-point 41 :   0.5000 0.4167 0.0000  plane waves:    1704
 k-point 42 :  -0.4167 0.4167 0.0000  plane waves:    1692
 k-point 43 :   0.5000 0.5000 0.0000  plane waves:    1724
 k-point 44 :   0.2500 0.1667 0.0833  plane waves:    1717
 k-point 45 :   0.3333 0.1667 0.0833  plane waves:    1704
 k-point 46 :   0.4167 0.1667 0.0833  plane waves:    1699
 k-point 47 :   0.5000 0.1667 0.0833  plane waves:    1707
 k-point 48 :  -0.4167 0.1667 0.0833  plane waves:    1714
 k-point 49 :   0.3333 0.2500 0.0833  plane waves:    1701
 k-point 50 :   0.4167 0.2500 0.0833  plane waves:    1701
 k-point 51 :   0.5000 0.2500 0.0833  plane waves:    1701
 k-point 52 :  -0.4167 0.2500 0.0833  plane waves:    1707
 k-point 53 :  -0.3333 0.2500 0.0833  plane waves:    1702
 k-point 54 :  -0.2500 0.2500 0.0833  plane waves:    1700
 k-point 55 :  -0.1667 0.2500 0.0833  plane waves:    1693
 k-point 56 :   0.4167 0.3333 0.0833  plane waves:    1697
 k-point 57 :   0.5000 0.3333 0.0833  plane waves:    1697
 k-point 58 :  -0.4167 0.3333 0.0833  plane waves:    1701
 k-point 59 :  -0.3333 0.3333 0.0833  plane waves:    1705
 k-point 60 :  -0.2500 0.3333 0.0833  plane waves:    1709
 k-point 61 :   0.5000 0.4167 0.0833  plane waves:    1696
 k-point 62 :  -0.4167 0.4167 0.0833  plane waves:    1699
 k-point 63 :  -0.3333 0.4167 0.0833  plane waves:    1701
 k-point 64 :  -0.4167 0.5000 0.0833  plane waves:    1698
 k-point 65 :   0.5000 0.3333 0.1667  plane waves:    1700
 k-point 66 :  -0.4167 0.3333 0.1667  plane waves:    1699
 k-point 67 :  -0.3333 0.3333 0.1667  plane waves:    1714
 k-point 68 :  -0.4167 0.4167 0.1667  plane waves:    1698
 k-point 69 :  -0.3333 0.4167 0.1667  plane waves:    1700
 k-point 70 :  -0.2500 0.4167 0.1667  plane waves:    1705
 k-point 71 :  -0.3333 0.5000 0.1667  plane waves:    1688
 k-point 72 :  -0.2500 0.5000 0.2500  plane waves:    1708

 maximum and minimum number of plane-waves per node :      1731     1687

 maximum number of plane-waves:      1731
 maximum index in each direction: 
   IXMAX=    8   IYMAX=    8   IZMAX=    8
   IXMIN=   -8   IYMIN=   -8   IZMIN=   -8

 WARNING: aliasing errors must be expected set NGX to  34 to avoid them
 WARNING: aliasing errors must be expected set NGY to  34 to avoid them
 WARNING: aliasing errors must be expected set NGZ to  34 to avoid them
 aliasing errors are usually negligible using standard VASP settings
 and one can safely disregard these warnings

 serial   3D FFT for wavefunctions
 parallel 3D FFT for charge:
    minimum data exchange during FFTs selected (reduces bandwidth)


 total amount of memory used by VASP on root node    46736. kBytes
========================================================================

   base      :      30000. kBytes
   nonl-proj :       8036. kBytes
   fftplans  :       1619. kBytes
   grid      :       3048. kBytes
   one-center:          6. kBytes
   wavefun   :       4027. kBytes
 
     INWAV:  cpu time    0.00: real time    0.00
 Broyden mixing: mesh for mixing (old mesh)
   NGX = 17   NGY = 17   NGZ = 17
  (NGX  = 56   NGY  = 56   NGZ  = 56)
  gives a total of   4913 points

 initial charge density was supplied:
 charge density of overlapping atoms calculated
 number of electron       8.0000000 magnetization 
 keeping initial charge density in first step


--------------------------------------------------------------------------------------------------------


 Maximum index for augmentation-charges         3500 (set IRDMAX)


--------------------------------------------------------------------------------------------------------


 First call to EWALD:  gamma=   0.478
 Maximum number of real-space cells 3x 3x 3
 Maximum number of reciprocal cells 3x 3x 3

 FEWALD executed in parallel
    FEWALD:  cpu time    0.00: real time    0.00


----------------------------------------- Iteration    1(   1)  ---------------------------------------


    POTLOK:  cpu time    0.02: real time    0.03
    SETDIJ:  cpu time    0.00: real time    0.00
     EDDAV:  cpu time    0.42: real time    0.43
       DOS:  cpu time    0.00: real time    0.00
    --------------------------------------------
      LOOP:  cpu time    0.45: real time    0.46

 eigenvalue-minimisations  :  1152
 total energy-change (2. order) : 0.8820810E+01  (-0.3312407E+03)
 number of electron       8.0000000 magnetization 
 augmentation part        8.0000000 magnetization 

 Free energy of the ion-electron system (eV)
  ---------------------------------------------------
  alpha Z        PSCENC =         2.63727354
  Ewald energy   TEWEN  =      -210.74981902
  -Hartree energ DENC   =       -14.95301475
  -exchange      EXHF   =         0.00000000
  -V(xc)+E(xc)   XCENC  =       -19.48653552
  PAW double counting   =        65.95520812      -30.76852678
  entropy T*S    EENTRO =        -0.00106930
  eigenvalues    EBANDS =        10.05417495
  atomic energy  EATOM  =       206.13311910
  ---------------------------------------------------
  free energy    TOTEN  =         8.82081034 eV

  energy without entropy =        8.82187964  energy(sigma->0) =        8.82134499


--------------------------------------------------------------------------------------------------------




----------------------------------------- Iteration    1(   2)  ---------------------------------------


     EDDAV:  cpu time    0.59: real time    0.59
       DOS:  cpu time    0.00: real time    0.00
    --------------------------------------------
      LOOP:  cpu time    0.59: real time    0.59

 eigenvalue-minimisations  :  1720
 total energy-change (2. order) :-0.1895027E+02  (-0.1827697E+02)
 number of electron       8.0000000 magnetization 
 augmentation part        8.0000000 magnetization 

 Free energy of the ion-electron system (eV)
  ---------------------------------------------------
  alpha Z        PSCENC =         2.63727354
  Ewald energy   TEWEN  =      -210.74981902
  -Hartree energ DENC   =       -14.95301475
  -exchange      EXHF   =         0.00000000
  -V(xc)+E(xc)   XCENC  =       -19.48653552
  PAW double counting   =        65.95520812      -30.76852678
  entropy T*S    EENTRO =        -0.00002706
  eigenvalues    EBANDS =        -8.89713293
  atomic energy  EATOM  =       206.13311910
  ---------------------------------------------------
  free energy    TOTEN  =       -10.12945531 eV

  energy without entropy =      -10.12942824  energy(sigma->0) =      -10.12944178


--------------------------------------------------------------------------------------------------------




----------------------------------------- Iteration    1(   3)  ---------------------------------------


     EDDAV:  cpu time    0.55: real time    0.55
       DOS:  cpu time    0.00: real time    0.00
    --------------------------------------------
      LOOP:  cpu time    0.55: real time    0.56

 eigenvalue-minimisations  :  1568
 total energy-change (2. order) :-0.3245900E+00  (-0.3244670E+00)
 number of electron       8.0000000 magnetization 
 augmentation part        8.0000000 magnetization 

 Free energy of the ion-electron system (eV)
  ---------------------------------------------------
  alpha Z        PSCENC =         2.63727354
  Ewald energy   TEWEN  =      -210.74981902
  -Hartree energ DENC   =       -14.95301475
  -exchange      EXHF   =         0.00000000
  -V(xc)+E(xc)   XCENC  =       -19.48653552
  PAW double counting   =        65.95520812      -30.76852678
  entropy T*S    EENTRO =        -0.00000000
  eigenvalues    EBANDS =        -9.22175001
  atomic energy  EATOM  =       206.13311910
  ---------------------------------------------------
  free energy    TOTEN  =       -10.45404532 eV

  energy without entropy =      -10.45404532  energy(sigma->0) =      -10.45404532


--------------------------------------------------------------------------------------------------------




----------------------------------------- Iteration    1(   4)  ---------------------------------------


     EDDAV:  cpu time    0.60: real time    0.61
       DOS:  cpu time    0.00: real time    0.00
    --------------------------------------------
      LOOP:  cpu time    0.60: real time    0.61

 eigenvalue-minimisations  :  1760
 total energy-change (2. order) :-0.1454696E-02  (-0.1454696E-02)
 number of electron       8.0000000 magnetization 
 augmentation part        8.0000000 magnetization 

 Free energy of the ion-electron system (eV)
  ---------------------------------------------------
  alpha Z        PSCENC =         2.63727354
  Ewald energy   TEWEN  =      -210.74981902
  -Hartree energ DENC   =       -14.95301475
  -exchange      EXHF   =         0.00000000
  -V(xc)+E(xc)   XCENC  =       -19.48653552
  PAW double counting   =        65.95520812      -30.76852678
  entropy T*S    EENTRO =        -0.00000000
  eigenvalues    EBANDS =        -9.22320470
  atomic energy  EATOM  =       206.13311910
  ---------------------------------------------------
  free energy    TOTEN  =       -10.45550002 eV

  energy without entropy =      -10.45550002  energy(sigma->0) =      -10.45550002


--------------------------------------------------------------------------------------------------------




----------------------------------------- Iteration    1(   5)  ---------------------------------------


     EDDAV:  cpu time    0.57: real time    0.58
       DOS:  cpu time    0.00: real time    0.00
    CHARGE:  cpu time    0.03: real time    0.03
    MIXING:  cpu time    0.00: real time    0.00
    --------------------------------------------
      LOOP:  cpu time    0.60: real time    0.61

 eigenvalue-minimisations  :  1672
 total energy-change (2. order) :-0.3050576E-05  (-0.3050445E-05)
 number of electron       7.9999999 magnetization 
 augmentation part       -0.4667468 magnetization 

 Broyden mixing:
  rms(total) = 0.24433E+00    rms(broyden)= 0.24433E+00
  rms(prec ) = 0.66267E+00
  weight for this iteration     100.00

 Free energy of the ion-electron system (eV)
  ---------------------------------------------------
  alpha Z        PSCENC =         2.63727354
  Ewald energy   TEWEN  =      -210.74981902
  -Hartree energ DENC   =       -14.95301475
  -exchange      EXHF   =         0.00000000
  -V(xc)+E(xc)   XCENC  =       -19.48653552
  PAW double counting   =        65.95520812      -30.76852678
  entropy T*S    EENTRO =        -0.00000000
  eigenvalues    EBANDS =        -9.22320775
  atomic energy  EATOM  =       206.13311910
  ---------------------------------------------------
  free energy    TOTEN  =       -10.45550307 eV

  energy without entropy =      -10.45550307  energy(sigma->0) =      -10.45550307


--------------------------------------------------------------------------------------------------------




----------------------------------------- Iteration    1(   6)  ---------------------------------------


    POTLOK:  cpu time    0.02: real time    0.03
    SETDIJ:  cpu time    0.00: real time    0.00
     EDDAV:  cpu time    0.49: real time    0.49
       DOS:  cpu time    0.00: real time    0.00
    CHARGE:  cpu time    0.03: real time    0.03
    MIXING:  cpu time    0.00: real time    0.00
    --------------------------------------------
      LOOP:  cpu time    0.54: real time    0.55

 eigenvalue-minimisations  :  1384
 total energy-change (2. order) : 0.4698659E-01  (-0.2435625E-02)
 number of electron       7.9999999 magnetization 
 augmentation part       -0.4641051 magnetization 

 Broyden mixing:
  rms(total) = 0.14982E+00    rms(broyden)= 0.14982E+00
  rms(prec ) = 0.40729E+00
  weight for this iteration     100.00

 eigenvalues of (default mixing * dielectric matrix)
  average eigenvalue GAMMA=   2.5690
  2.5690

 Free energy of the ion-electron system (eV)
  ---------------------------------------------------
  alpha Z        PSCENC =         2.63727354
  Ewald energy   TEWEN  =      -210.74981902
  -Hartree energ DENC   =       -16.01429489
  -exchange      EXHF   =         0.00000000
  -V(xc)+E(xc)   XCENC  =       -19.32506889
  PAW double counting   =        67.29599684      -32.14279397
  entropy T*S    EENTRO =        -0.00000000
  eigenvalues    EBANDS =        -8.24292919
  atomic energy  EATOM  =       206.13311910
  ---------------------------------------------------
  free energy    TOTEN  =       -10.40851647 eV

  energy without entropy =      -10.40851647  energy(sigma->0) =      -10.40851647


--------------------------------------------------------------------------------------------------------




----------------------------------------- Iteration    1(   7)  ---------------------------------------


    POTLOK:  cpu time    0.02: real time    0.03
    SETDIJ:  cpu time    0.00: real time    0.00
     EDDAV:  cpu time    0.50: real time    0.50
       DOS:  cpu time    0.00: real time    0.00
    CHARGE:  cpu time    0.03: real time    0.03
    MIXING:  cpu time    0.00: real time    0.00
    --------------------------------------------
      LOOP:  cpu time    0.55: real time    0.56

 eigenvalue-minimisations  :  1416
 total energy-change (2. order) : 0.2729252E-01  (-0.6032355E-02)
 number of electron       7.9999999 magnetization 
 augmentation part       -0.4612058 magnetization 

 Broyden mixing:
  rms(total) = 0.10585E-01    rms(broyden)= 0.10585E-01
  rms(prec ) = 0.26261E-01
  weight for this iteration     100.00

 eigenvalues of (default mixing * dielectric matrix)
  average eigenvalue GAMMA=   2.5292
  2.5292  2.5292

 Free energy of the ion-electron system (eV)
  ---------------------------------------------------
  alpha Z        PSCENC =         2.63727354
  Ewald energy   TEWEN  =      -210.74981902
  -Hartree energ DENC   =       -17.93782119
  -exchange      EXHF   =         0.00000000
  -V(xc)+E(xc)   XCENC  =       -19.02518987
  PAW double counting   =        68.90539310      -33.79094050
  entropy T*S    EENTRO =        -0.00000000
  eigenvalues    EBANDS =        -6.55323912
  atomic energy  EATOM  =       206.13311910
  ---------------------------------------------------
  free energy    TOTEN  =       -10.38122395 eV

  energy without entropy =      -10.38122395  energy(sigma->0) =      -10.38122395


--------------------------------------------------------------------------------------------------------




----------------------------------------- Iteration    1(   8)  ---------------------------------------


    POTLOK:  cpu time    0.02: real time    0.03
    SETDIJ:  cpu time    0.00: real time    0.00
     EDDAV:  cpu time    0.45: real time    0.45
       DOS:  cpu time    0.00: real time    0.00
    CHARGE:  cpu time    0.03: real time    0.03
    MIXING:  cpu time    0.00: real time    0.00
    --------------------------------------------
      LOOP:  cpu time    0.50: real time    0.51

 eigenvalue-minimisations  :  1232
 total energy-change (2. order) :-0.1371756E-02  (-0.2437771E-03)
 number of electron       7.9999999 magnetization 
 augmentation part       -0.4617680 magnetization 

 Broyden mixing:
  rms(total) = 0.26563E-02    rms(broyden)= 0.26563E-02
  rms(prec ) = 0.89110E-02
  weight for this iteration     100.00

 eigenvalues of (default mixing * dielectric matrix)
  average eigenvalue GAMMA=   2.1769
  1.1863  2.9323  2.4121

 Free energy of the ion-electron system (eV)
  ---------------------------------------------------
  alpha Z        PSCENC =         2.63727354
  Ewald energy   TEWEN  =      -210.74981902
  -Hartree energ DENC   =       -17.90721556
  -exchange      EXHF   =         0.00000000
  -V(xc)+E(xc)   XCENC  =       -19.02846082
  PAW double counting   =        68.27633619      -33.14459682
  entropy T*S    EENTRO =        -0.00000000
  eigenvalues    EBANDS =        -6.59923232
  atomic energy  EATOM  =       206.13311910
  ---------------------------------------------------
  free energy    TOTEN  =       -10.38259571 eV

  energy without entropy =      -10.38259570  energy(sigma->0) =      -10.38259571


--------------------------------------------------------------------------------------------------------




----------------------------------------- Iteration    1(   9)  ---------------------------------------


    POTLOK:  cpu time    0.02: real time    0.03
    SETDIJ:  cpu time    0.00: real time    0.00
     EDDAV:  cpu time    0.58: real time    0.58
       DOS:  cpu time    0.00: real time    0.00
    CHARGE:  cpu time    0.03: real time    0.03
    MIXING:  cpu time    0.00: real time    0.00
    --------------------------------------------
      LOOP:  cpu time    0.63: real time    0.64

 eigenvalue-minimisations  :  1704
 total energy-change (2. order) :-0.1706063E-03  (-0.2052540E-04)
 number of electron       7.9999999 magnetization 
 augmentation part       -0.4618276 magnetization 

 Broyden mixing:
  rms(total) = 0.13259E-02    rms(broyden)= 0.13259E-02
  rms(prec ) = 0.33970E-02
  weight for this iteration     100.00

 eigenvalues of (default mixing * dielectric matrix)
  average eigenvalue GAMMA=   2.2793
  0.9753  3.2435  2.4492  2.4492

 Free energy of the ion-electron system (eV)
  ---------------------------------------------------
  alpha Z        PSCENC =         2.63727354
  Ewald energy   TEWEN  =      -210.74981902
  -Hartree energ DENC   =       -17.95730173
  -exchange      EXHF   =         0.00000000
  -V(xc)+E(xc)   XCENC  =       -19.02134774
  PAW double counting   =        68.19757047      -33.06405652
  entropy T*S    EENTRO =        -0.00000000
  eigenvalues    EBANDS =        -6.55820443
  atomic energy  EATOM  =       206.13311910
  ---------------------------------------------------
  free energy    TOTEN  =       -10.38276631 eV

  energy without entropy =      -10.38276631  energy(sigma->0) =      -10.38276631


--------------------------------------------------------------------------------------------------------




----------------------------------------- Iteration    1(  10)  ---------------------------------------


    POTLOK:  cpu time    0.02: real time    0.03
    SETDIJ:  cpu time    0.00: real time    0.00
     EDDAV:  cpu time    0.45: real time    0.45
       DOS:  cpu time    0.00: real time    0.00
    CHARGE:  cpu time    0.03: real time    0.03
    MIXING:  cpu time    0.00: real time    0.00
    --------------------------------------------
      LOOP:  cpu time    0.50: real time    0.52

 eigenvalue-minimisations  :  1240
 total energy-change (2. order) :-0.1729745E-04  (-0.3271339E-05)
 number of electron       7.9999999 magnetization 
 augmentation part       -0.4617191 magnetization 

 Broyden mixing:
  rms(total) = 0.13667E-03    rms(broyden)= 0.13667E-03
  rms(prec ) = 0.39378E-03
  weight for this iteration     100.00

 eigenvalues of (default mixing * dielectric matrix)
  average eigenvalue GAMMA=   2.1202
  3.3372  2.6883  2.1712  0.9676  1.4368

 Free energy of the ion-electron system (eV)
  ---------------------------------------------------
  alpha Z        PSCENC =         2.63727354
  Ewald energy   TEWEN  =      -210.74981902
  -Hartree energ DENC   =       -17.97116388
  -exchange      EXHF   =         0.00000000
  -V(xc)+E(xc)   XCENC  =       -19.02093819
  PAW double counting   =        68.23405841      -33.10227001
  entropy T*S    EENTRO =        -0.00000000
  eigenvalues    EBANDS =        -6.54304357
  atomic energy  EATOM  =       206.13311910
  ---------------------------------------------------
  free energy    TOTEN  =       -10.38278361 eV

  energy without entropy =      -10.38278361  energy(sigma->0) =      -10.38278361


--------------------------------------------------------------------------------------------------------




----------------------------------------- Iteration    1(  11)  ---------------------------------------


    POTLOK:  cpu time    0.02: real time    0.03
    SETDIJ:  cpu time    0.00: real time    0.00
     EDDAV:  cpu time    0.62: real time    0.62
       DOS:  cpu time    0.00: real time    0.00
    CHARGE:  cpu time    0.03: real time    0.03
    MIXING:  cpu time    0.00: real time    0.00
    --------------------------------------------
      LOOP:  cpu time    0.67: real time    0.68

 eigenvalue-minimisations  :  1808
 total energy-change (2. order) : 0.6289636E-06  (-0.4122729E-07)
 number of electron       7.9999999 magnetization 
 augmentation part       -0.4617321 magnetization 

 Broyden mixing:
  rms(total) = 0.56106E-04    rms(broyden)= 0.56106E-04
  rms(prec ) = 0.97992E-04
  weight for this iteration     100.00

 eigenvalues of (default mixing * dielectric matrix)
  average eigenvalue GAMMA=   2.1781
  3.3842  2.8183  2.6571  2.1904  0.9761  1.0422

 Free energy of the ion-electron system (eV)
  ---------------------------------------------------
  alpha Z        PSCENC =         2.63727354
  Ewald energy   TEWEN  =      -210.74981902
  -Hartree energ DENC   =       -17.96864111
  -exchange      EXHF   =         0.00000000
  -V(xc)+E(xc)   XCENC  =       -19.02117475
  PAW double counting   =        68.22393627      -33.09174286
  entropy T*S    EENTRO =        -0.00000000
  eigenvalues    EBANDS =        -6.54573416
  atomic energy  EATOM  =       206.13311910
  ---------------------------------------------------
  free energy    TOTEN  =       -10.38278298 eV

  energy without entropy =      -10.38278298  energy(sigma->0) =      -10.38278298


--------------------------------------------------------------------------------------------------------




----------------------------------------- Iteration    1(  12)  ---------------------------------------


    POTLOK:  cpu time    0.02: real time    0.03
    SETDIJ:  cpu time    0.00: real time    0.00
     EDDAV:  cpu time    0.45: real time    0.45
       DOS:  cpu time    0.00: real time    0.00
    CHARGE:  cpu time    0.02: real time    0.03
    MIXING:  cpu time    0.00: real time    0.00
    --------------------------------------------
      LOOP:  cpu time    0.50: real time    0.51

 eigenvalue-minimisations  :  1232
 total energy-change (2. order) : 0.2250508E-07  (-0.8413927E-08)
 number of electron       7.9999999 magnetization 
 augmentation part       -0.4617311 magnetization 

 Broyden mixing:
  rms(total) = 0.53372E-05    rms(broyden)= 0.53371E-05
  rms(prec ) = 0.16610E-04
  weight for this iteration     100.00

 eigenvalues of (default mixing * dielectric matrix)
  average eigenvalue GAMMA=   1.9978
  3.3981  2.7782  2.4512  2.3178  0.9693  1.0349  1.0349

 Free energy of the ion-electron system (eV)
  ---------------------------------------------------
  alpha Z        PSCENC =         2.63727354
  Ewald energy   TEWEN  =      -210.74981902
  -Hartree energ DENC   =       -17.96905215
  -exchange      EXHF   =         0.00000000
  -V(xc)+E(xc)   XCENC  =       -19.02109682
  PAW double counting   =        68.22505080      -33.09276993
  entropy T*S    EENTRO =        -0.00000000
  eigenvalues    EBANDS =        -6.54548849
  atomic energy  EATOM  =       206.13311910
  ---------------------------------------------------
  free energy    TOTEN  =       -10.38278296 eV

  energy without entropy =      -10.38278296  energy(sigma->0) =      -10.38278296


--------------------------------------------------------------------------------------------------------




----------------------------------------- Iteration    1(  13)  ---------------------------------------


    POTLOK:  cpu time    0.02: real time    0.03
    SETDIJ:  cpu time    0.00: real time    0.00
     EDDAV:  cpu time    0.65: real time    0.65
       DOS:  cpu time    0.00: real time    0.00
    CHARGE:  cpu time    0.03: real time    0.03
    MIXING:  cpu time    0.00: real time    0.00
    --------------------------------------------
      LOOP:  cpu time    0.70: real time    0.72

 eigenvalue-minimisations  :  1912
 total energy-change (2. order) : 0.1739761E-07  (-0.7777842E-10)
 number of electron       7.9999999 magnetization 
 augmentation part       -0.4617317 magnetization 

 Broyden mixing:
  rms(total) = 0.21237E-05    rms(broyden)= 0.21237E-05
  rms(prec ) = 0.30048E-05
  weight for this iteration     100.00

 eigenvalues of (default mixing * dielectric matrix)
  average eigenvalue GAMMA=   2.0888
  3.3920  2.8854  2.6862  2.5325  2.2301  1.0346  0.9910  0.9587

 Free energy of the ion-electron system (eV)
  ---------------------------------------------------
  alpha Z        PSCENC =         2.63727354
  Ewald energy   TEWEN  =      -210.74981902
  -Hartree energ DENC   =       -17.96895487
  -exchange      EXHF   =         0.00000000
  -V(xc)+E(xc)   XCENC  =       -19.02110551
  PAW double counting   =        68.22462841      -33.09233596
  entropy T*S    EENTRO =        -0.00000000
  eigenvalues    EBANDS =        -6.54558864
  atomic energy  EATOM  =       206.13311910
  ---------------------------------------------------
  free energy    TOTEN  =       -10.38278294 eV

  energy without entropy =      -10.38278294  energy(sigma->0) =      -10.38278294


--------------------------------------------------------------------------------------------------------




----------------------------------------- Iteration    1(  14)  ---------------------------------------


    POTLOK:  cpu time    0.02: real time    0.03
    SETDIJ:  cpu time    0.00: real time    0.00
     EDDAV:  cpu time    0.44: real time    0.44
       DOS:  cpu time    0.00: real time    0.00
    CHARGE:  cpu time    0.02: real time    0.03
    MIXING:  cpu time    0.00: real time    0.00
    --------------------------------------------
      LOOP:  cpu time    0.50: real time    0.50

 eigenvalue-minimisations  :  1176
 total energy-change (2. order) :-0.5235279E-08  (-0.1041664E-10)
 number of electron       7.9999999 magnetization 
 augmentation part       -0.4617317 magnetization 

 Broyden mixing:
  rms(total) = 0.34997E-06    rms(broyden)= 0.34997E-06
  rms(prec ) = 0.80854E-06
  weight for this iteration     100.00

 eigenvalues of (default mixing * dielectric matrix)
  average eigenvalue GAMMA=   1.9720
  3.4054  2.8938  2.6568  2.5099  2.2631  1.0409  1.0409  0.9870  0.9503

 Free energy of the ion-electron system (eV)
  ---------------------------------------------------
  alpha Z        PSCENC =         2.63727354
  Ewald energy   TEWEN  =      -210.74981902
  -Hartree energ DENC   =       -17.96894997
  -exchange      EXHF   =         0.00000000
  -V(xc)+E(xc)   XCENC  =       -19.02110524
  PAW double counting   =        68.22458460      -33.09229787
  entropy T*S    EENTRO =        -0.00000000
  eigenvalues    EBANDS =        -6.54558809
  atomic energy  EATOM  =       206.13311910
  ---------------------------------------------------
  free energy    TOTEN  =       -10.38278295 eV

  energy without entropy =      -10.38278295  energy(sigma->0) =      -10.38278295


--------------------------------------------------------------------------------------------------------




----------------------------------------- Iteration    1(  15)  ---------------------------------------


    POTLOK:  cpu time    0.02: real time    0.04
    SETDIJ:  cpu time    0.00: real time    0.00
     EDDAV:  cpu time    0.29: real time    0.31
       DOS:  cpu time    0.00: real time    0.00
    CHARGE:  cpu time    0.03: real time    0.03
    MIXING:  cpu time    0.00: real time    0.00
    --------------------------------------------
      LOOP:  cpu time    0.35: real time    0.40

 eigenvalue-minimisations  :   672
 total energy-change (2. order) :-0.6959624E-09  (-0.2281095E-12)
 number of electron       7.9999999 magnetization 
 augmentation part       -0.4617317 magnetization 

 Broyden mixing:
  rms(total) = 0.66860E-07    rms(broyden)= 0.66859E-07
  rms(prec ) = 0.12300E-06
  weight for this iteration     100.00

 eigenvalues of (default mixing * dielectric matrix)
  average eigenvalue GAMMA=   2.0474
  3.4059  2.9091  2.8208  2.2612  2.5586  2.5382  1.0107  1.0020  1.0020  0.9651

 Free energy of the ion-electron system (eV)
  ---------------------------------------------------
  alpha Z        PSCENC =         2.63727354
  Ewald energy   TEWEN  =      -210.74981902
  -Hartree energ DENC   =       -17.96895187
  -exchange      EXHF   =         0.00000000
  -V(xc)+E(xc)   XCENC  =       -19.02110538
  PAW double counting   =        68.22459319      -33.09230696
  entropy T*S    EENTRO =        -0.00000000
  eigenvalues    EBANDS =        -6.54558556
  atomic energy  EATOM  =       206.13311910
  ---------------------------------------------------
  free energy    TOTEN  =       -10.38278295 eV

  energy without entropy =      -10.38278295  energy(sigma->0) =      -10.38278295


--------------------------------------------------------------------------------------------------------




----------------------------------------- Iteration    1(  16)  ---------------------------------------


    POTLOK:  cpu time    0.02: real time    0.05
    SETDIJ:  cpu time    0.00: real time    0.00
     EDDAV:  cpu time    0.27: real time    0.28
       DOS:  cpu time    0.00: real time    0.00
    CHARGE:  cpu time    0.03: real time    0.03
    MIXING:  cpu time    0.00: real time    0.00
    --------------------------------------------
      LOOP:  cpu time    0.32: real time    0.37

 eigenvalue-minimisations  :   584
 total energy-change (2. order) : 0.1017497E-09  (-0.4968716E-13)
 number of electron       7.9999999 magnetization 
 augmentation part       -0.4617317 magnetization 

 Broyden mixing:
  rms(total) = 0.64783E-08    rms(broyden)= 0.64740E-08
  rms(prec ) = 0.15106E-07
  weight for this iteration     100.00

 eigenvalues of (default mixing * dielectric matrix)
  average eigenvalue GAMMA=   2.0006
  3.4049  3.0198  2.2616  2.7713  2.6350  2.4952  1.0249  0.9909  0.9909  0.9672
  1.4446

 Free energy of the ion-electron system (eV)
  ---------------------------------------------------
  alpha Z        PSCENC =         2.63727354
  Ewald energy   TEWEN  =      -210.74981902
  -Hartree energ DENC   =       -17.96895146
  -exchange      EXHF   =         0.00000000
  -V(xc)+E(xc)   XCENC  =       -19.02110547
  PAW double counting   =        68.22459547      -33.09230911
  entropy T*S    EENTRO =        -0.00000000
  eigenvalues    EBANDS =        -6.54558600
  atomic energy  EATOM  =       206.13311910
  ---------------------------------------------------
  free energy    TOTEN  =       -10.38278295 eV

  energy without entropy =      -10.38278295  energy(sigma->0) =      -10.38278295


--------------------------------------------------------------------------------------------------------




----------------------------------------- Iteration    1(  17)  ---------------------------------------


    POTLOK:  cpu time    0.02: real time    0.04
    SETDIJ:  cpu time    0.00: real time    0.00
     EDDAV:  cpu time    0.27: real time    0.31
       DOS:  cpu time    0.00: real time    0.00
    --------------------------------------------
      LOOP:  cpu time    0.29: real time    0.36

 eigenvalue-minimisations  :   576
 total energy-change (2. order) :-0.1517719E-10  (-0.1380510E-13)
 number of electron       7.9999999 magnetization 
 augmentation part       -0.4617317 magnetization 

 Free energy of the ion-electron system (eV)
  ---------------------------------------------------
  alpha Z        PSCENC =         2.63727354
  Ewald energy   TEWEN  =      -210.74981902
  -Hartree energ DENC   =       -17.96895150
  -exchange      EXHF   =         0.00000000
  -V(xc)+E(xc)   XCENC  =       -19.02110546
  PAW double counting   =        68.22459585      -33.09230951
  entropy T*S    EENTRO =        -0.00000000
  eigenvalues    EBANDS =        -6.54558596
  atomic energy  EATOM  =       206.13311910
  ---------------------------------------------------
  free energy    TOTEN  =       -10.38278295 eV

  energy without entropy =      -10.38278295  energy(sigma->0) =      -10.38278295


--------------------------------------------------------------------------------------------------------




 average (electrostatic) potential at core
  the test charge radii are     0.9892
  (the norm of the test charge is              1.0000)
       1 -85.7579       2 -85.7579
 
 
 
 E-fermi :   3.9787     XC(G=0):  -8.4841     alpha+bet : -9.3951


 k-point     1 :       0.0000    0.0000    0.0000
  band No.  band energies     occupation 
      1      -6.8334      2.00000
      2       3.6249      2.00000
      3       3.6249      2.00000
      4       3.6249      2.00000
      5       4.4436      0.00000
      6       6.0560      0.00000
      7       6.0560      0.00000
      8       6.0560      0.00000

 k-point     2 :       0.0833    0.0000    0.0000
  band No.  band energies     occupation 
      1      -6.7601      2.00000
      2       2.6241      2.00000
      3       3.5149      2.00000
      4       3.5149      2.00000
      5       5.0159      0.00000
      6       6.2191      0.00000
      7       6.2191      0.00000
      8       6.3707      0.00000

 k-point     3 :       0.1667    0.0000    0.0000
  band No.  band energies     occupation 
      1      -6.5435      2.00000
      2       1.2835      2.00000
      3       3.2707      2.00000
      4       3.2707      2.00000
      5       5.0210      0.00000
      6       6.5774      0.00000
      7       6.5774      0.00000
      8       7.4608      0.00000

 k-point     4 :       0.2500    0.0000    0.0000
  band No.  band energies     occupation 
      1      -6.1950      2.00000
      2       0.0009      2.00000
      3       3.0144      2.00000
      4       3.0144      2.00000
      5       4.7772      0.00000
      6       6.8861      0.00000
      7       6.8861      0.00000
      8       8.7806      0.00000

 k-point     5 :       0.3333    0.0000    0.0000
  band No.  band energies     occupation 
      1      -5.7455      2.00000
      2      -1.1382      2.00000
      3       2.8094      2.00000
      4       2.8094      2.00000
      5       4.5467      0.00000
      6       7.0031      0.00000
      7       7.0031      0.00000
      8      10.0755      0.00000

 k-point     6 :       0.4167    0.0000    0.0000
  band No.  band energies     occupation 
      1      -5.2837      2.00000
      2      -2.0213      2.00000
      3       2.6806      2.00000
      4       2.6806      2.00000
      5       4.3950      0.00000
      6       6.9935      0.00000
      7       6.9935      0.00000
      8      10.8541      0.00000

 k-point     7 :       0.5000    0.0000    0.0000
  band No.  band energies     occupation 
      1      -5.0528      2.00000
      2      -2.3937      2.00000
      3       2.6370      2.00000
      4       2.6370      2.00000
      5       4.3427      0.00000
      6       6.9756      0.00000
      7       6.9756      0.00000
      8      10.9281      0.00000

 k-point     8 :       0.0833    0.0833    0.0000
  band No.  band energies     occupation 
      1      -6.7355      2.00000
      2       2.6000      2.00000
      3       3.3083      2.00000
      4       3.3083      2.00000
      5       5.4379      0.00000
      6       5.8394      0.00000
      7       6.4941      0.00000
      8       6.4941      0.00000

 k-point     9 :       0.1667    0.0833    0.0000
  band No.  band energies     occupation 
      1      -6.5661      2.00000
      2       1.5757      2.00000
      3       3.0229      2.00000
      4       3.0991      2.00000
      5       5.6272      0.00000
      6       5.9525      0.00000
      7       6.9268      0.00000
      8       7.2556      0.00000

 k-point    10 :       0.2500    0.0833    0.0000
  band No.  band energies     occupation 
      1      -6.2598      2.00000
      2       0.3552      2.00000
      3       2.7648      2.00000
      4       2.8135      2.00000
      5       5.4108      0.00000
      6       6.3681      0.00000
      7       7.2918      0.00000
      8       8.2189      0.00000

 k-point    11 :       0.3333    0.0833    0.0000
  band No.  band energies     occupation 
      1      -5.8385      2.00000
      2      -0.7998      2.00000
      3       2.5135      2.00000
      4       2.5832      2.00000
      5       5.1729      0.00000
      6       6.6944      0.00000
      7       7.4246      0.00000
      8       9.0229      0.00000

 k-point    12 :       0.4167    0.0833    0.0000
  band No.  band energies     occupation 
      1      -5.3633      2.00000
      2      -1.7677      2.00000
      3       2.2683      2.00000
      4       2.4969      2.00000
      5       4.9925      0.00000
      6       6.8244      0.00000
      7       7.3633      0.00000
      8       9.9364      0.00000

 k-point    13 :       0.5000    0.0833    0.0000
  band No.  band energies     occupation 
      1      -5.0154      2.00000
      2      -2.3431      2.00000
      3       2.1075      2.00000
      4       2.5095      2.00000
      5       4.8997      0.00000
      6       6.8925      0.00000
      7       7.2459      0.00000
      8      10.7936      0.00000

 k-point    14 :      -0.4167    0.0833    0.0000
  band No.  band energies     occupation 
      1      -5.0982      2.00000
      2      -2.2139      2.00000
      3       2.0457      2.00000
      4       2.6162      2.00000
      5       4.9051      0.00000
      6       6.9929      0.00000
      7       7.1489      0.00000
      8      10.8407      0.00000

 k-point    15 :      -0.3333    0.0833    0.0000
  band No.  band energies     occupation 
      1      -5.5219      2.00000
      2      -1.4721      2.00000
      3       2.0921      2.00000
      4       2.8052      2.00000
      5       5.0070      0.00000
      6       7.0589      0.00000
      7       7.1099      0.00000
      8       9.9961      0.00000

 k-point    16 :      -0.2500    0.0833    0.0000
  band No.  band energies     occupation 
      1      -5.9905      2.00000
      2      -0.4290      2.00000
      3       2.2536      2.00000
      4       3.0549      2.00000
      5       5.1890      0.00000
      6       6.8836      0.00000
      7       7.1056      0.00000
      8       8.9564      0.00000

 k-point    17 :      -0.1667    0.0833    0.0000
  band No.  band energies     occupation 
      1      -6.3770      2.00000
      2       0.7460      2.00000
      3       2.5397      2.00000
      4       3.3214      2.00000
      5       5.3936      0.00000
      6       6.5671      0.00000
      7       6.7756      0.00000
      8       8.0169      0.00000

 k-point    18 :      -0.0833    0.0833    0.0000
  band No.  band energies     occupation 
      1      -6.6388      2.00000
      2       1.8804      2.00000
      3       2.9849      2.00000
      4       3.5157      2.00000
      5       5.3854      0.00000
      6       6.2639      0.00000
      7       6.3340      0.00000
      8       7.1033      0.00000

 k-point    19 :       0.1667    0.1667    0.0000
  band No.  band energies     occupation 
      1      -6.4438      2.00000
      2       1.2848      2.00000
      3       2.7133      2.00000
      4       2.7133      2.00000
      5       5.3775      0.00000
      6       6.4446      0.00000
      7       7.4489      0.00000
      8       7.4489      0.00000

 k-point    20 :       0.2500    0.1667    0.0000
  band No.  band energies     occupation 
      1      -6.1817      2.00000
      2       0.4260      2.00000
      3       2.3852      2.00000
      4       2.4421      2.00000
      5       5.3822      0.00000
      6       6.5120      0.00000
      7       7.9307      0.00000
      8       7.9529      0.00000

 k-point    21 :       0.3333    0.1667    0.0000
  band No.  band energies     occupation 
      1      -5.7952      2.00000
      2      -0.5876      2.00000
      3       1.9826      2.00000
      4       2.2576      2.00000
      5       5.5166      0.00000
      6       6.7103      0.00000
      7       8.0521      0.00000
      8       8.1678      0.00000

 k-point    22 :       0.4167    0.1667    0.0000
  band No.  band energies     occupation 
      1      -5.3256      2.00000
      2      -1.5405      2.00000
      3       1.6092      2.00000
      4       2.1791      2.00000
      5       5.4762      0.00000
      6       7.0542      0.00000
      7       8.1319      0.00000
      8       8.4291      0.00000

 k-point    23 :       0.5000    0.1667    0.0000
  band No.  band energies     occupation 
      1      -4.8991      2.00000
      2      -2.2389      2.00000
      3       1.3300      2.00000
      4       2.2112      2.00000
      5       5.4300      0.00000
      6       7.1614      0.00000
      7       7.9674      0.00000
      8       9.4134      0.00000

 k-point    24 :      -0.4167    0.1667    0.0000
  band No.  band energies     occupation 
      1      -4.8222      2.00000
      2      -2.3508      2.00000
      3       1.1743      2.00000
      4       2.3487      2.00000
      5       5.4610      0.00000
      6       7.2315      0.00000
      7       7.7829      0.00000
      8      10.5566      0.00000

 k-point    25 :      -0.3333    0.1667    0.0000
  band No.  band energies     occupation 
      1      -5.1803      2.00000
      2      -1.7921      2.00000
      3       1.1649      2.00000
      4       2.5762      2.00000
      5       5.5722      0.00000
      6       7.3489      0.00000
      7       7.5846      0.00000
      8       9.7592      0.00000

 k-point    26 :      -0.2500    0.1667    0.0000
  band No.  band energies     occupation 
      1      -5.6564      2.00000
      2      -0.9158      2.00000
      3       1.3390      2.00000
      4       2.8627      2.00000
      5       5.7226      0.00000
      6       7.2915      0.00000
      7       7.3936      0.00000
      8       8.7588      0.00000

 k-point    27 :      -0.1667    0.1667    0.0000
  band No.  band energies     occupation 
      1      -6.0744      2.00000
      2      -0.0002      2.00000
      3       1.7749      2.00000
      4       3.1476      2.00000
      5       5.7687      0.00000
      6       6.8831      0.00000
      7       7.0418      0.00000
      8       8.3370      0.00000

 k-point    28 :       0.2500    0.2500    0.0000
  band No.  band energies     occupation 
      1      -5.9635      2.00000
      2      -0.0055      2.00000
      3       2.1527      2.00000
      4       2.1527      2.00000
      5       4.9293      0.00000
      6       6.4458      0.00000
      7       8.5963      0.00000
      8       8.5963      0.00000

 k-point    29 :       0.3333    0.2500    0.0000
  band No.  band energies     occupation 
      1      -5.6152      2.00000
      2      -0.7395      2.00000
      3       1.7812      2.00000
      4       1.9499      2.00000
      5       4.9993      0.00000
      6       6.2826      0.00000
      7       8.7702      0.00000
      8       9.0456      0.00000

 k-point    30 :       0.4167    0.2500    0.0000
  band No.  band energies     occupation 
      1      -5.1644      2.00000
      2      -1.5399      2.00000
      3       1.2785      2.00000
      4       1.8567      2.00000
      5       5.1939      0.00000
      6       6.6668      0.00000
      7       8.6025      0.00000
      8       9.1349      0.00000

 k-point    31 :       0.5000    0.2500    0.0000
  band No.  band energies     occupation 
      1      -4.6946      2.00000
      2      -2.2360      2.00000
      3       0.8403      2.00000
      4       1.8803      2.00000
      5       5.2573      0.00000
[...]
      8      10.2033      0.00000

 k-point    37 :       0.5000    0.3333    0.0000
  band No.  band energies     occupation 
      1      -4.3939      2.00000
      2      -2.5032      2.00000
      3       0.8315      2.00000
      4       1.6046      2.00000
      5       4.9488      0.00000
      6       6.2906      0.00000
      7       9.8210      0.00000
      8      10.1497      0.00000

 k-point    38 :      -0.4167    0.3333    0.0000
  band No.  band energies     occupation 
      1      -4.0627      2.00000
      2      -2.8665      2.00000
      3       0.4055      2.00000
      4       1.7236      2.00000
      5       5.0764      0.00000
      6       7.4835      0.00000
      7       9.6754      0.00000
      8       9.8383      0.00000

 k-point    39 :      -0.3333    0.3333    0.0000
  band No.  band energies     occupation 
      1      -4.2852      2.00000
      2      -2.6212      2.00000
      3       0.2530      2.00000
      4       1.9493      2.00000
      5       5.2919      0.00000
      6       8.8971      0.00000
      7       9.2556      0.00000
      8       9.5459      0.00000

 k-point    40 :       0.4167    0.4167    0.0000
  band No.  band energies     occupation 
      1      -4.4808      2.00000
      2      -2.4263      2.00000
      3       1.4560      2.00000
      4       1.4560      2.00000
      5       4.5423      0.00000
      6       5.1147      0.00000
      7      11.0394      0.00000
      8      11.0394      0.00000

 k-point    41 :       0.5000    0.4167    0.0000
  band No.  band energies     occupation 
      1      -3.9960      2.00000
      2      -2.9837      2.00000
      3       1.1529      2.00000
      4       1.4269      2.00000
      5       4.7326      0.00000
      6       5.1975      0.00000
      7      11.1789      0.00000
      8      11.2533      0.00000

 k-point    42 :      -0.4167    0.4167    0.0000
  band No.  band energies     occupation 
      1      -3.6739      2.00000
      2      -3.2893      2.00000
      3       0.6805      2.00000
      4       1.5189      2.00000
      5       4.8613      0.00000
      6       6.1452      0.00000
      7      10.8070      0.00000
      8      10.8587      0.00000

 k-point    43 :       0.5000    0.5000    0.0000
  band No.  band energies     occupation 
      1      -3.5130      2.00000
      2      -3.5130      2.00000
      3       1.3660      2.00000
      4       1.3660      2.00000
      5       4.6998      0.00000
      6       4.6998      0.00000
      7      11.7735      0.00000
      8      11.7735      0.00000

 k-point    44 :       0.2500    0.1667    0.0833
  band No.  band energies     occupation 
      1      -6.3507      2.00000
      2       0.8214      2.00000
      3       2.3823      2.00000
      4       3.0262      2.00000
      5       5.8705      0.00000
      6       6.0287      0.00000
      7       7.3044      0.00000
      8       7.8503      0.00000

 k-point    45 :       0.3333    0.1667    0.0833
  band No.  band energies     occupation 
      1      -6.0040      2.00000
      2      -0.1793      2.00000
      3       1.9181      2.00000
      4       2.8131      2.00000
      5       5.8305      0.00000
      6       6.4060      0.00000
      7       7.6933      0.00000
      8       8.2016      0.00000

 k-point    46 :       0.4167    0.1667    0.0833
  band No.  band energies     occupation 
      1      -5.5552      2.00000
      2      -1.1946      2.00000
      3       1.6431      2.00000
      4       2.5654      2.00000
      5       5.6586      0.00000
      6       6.7510      0.00000
      7       7.8002      0.00000
      8       8.7521      0.00000

 k-point    47 :       0.5000    0.1667    0.0833
  band No.  band energies     occupation 
      1      -5.0903      2.00000
      2      -2.0272      2.00000
      3       1.4991      2.00000
      4       2.3835      2.00000
      5       5.5317      0.00000
      6       6.8276      0.00000
      7       7.7838      0.00000
      8       9.7020      0.00000

 k-point    48 :      -0.4167    0.1667    0.0833
  band No.  band energies     occupation 
      1      -4.8546      2.00000
      2      -2.3892      2.00000
      3       1.4548      2.00000
      4       2.3174      2.00000
      5       5.4866      0.00000
      6       6.8243      0.00000
      7       7.7651      0.00000
      8      10.6311      0.00000

 k-point    49 :       0.3333    0.2500    0.0833
  band No.  band energies     occupation 
      1      -5.8775      2.00000
      2      -0.2750      2.00000
      3       1.8256      2.00000
      4       2.3283      2.00000
      5       5.4441      0.00000
      6       6.5433      0.00000
      7       8.0141      0.00000
      8       8.5083      0.00000

 k-point    50 :       0.4167    0.2500    0.0833
  band No.  band energies     occupation 
      1      -5.4580      2.00000
      2      -1.1097      2.00000
      3       1.3728      2.00000
      4       2.1171      2.00000
      5       5.6986      0.00000
      6       6.7815      0.00000
      7       7.8559      0.00000
      8       8.8830      0.00000

 k-point    51 :       0.5000    0.2500    0.0833
  band No.  band energies     occupation 
      1      -4.9796      2.00000
      2      -1.9096      2.00000
      3       1.0458      2.00000
      4       1.9659      2.00000
      5       5.7544      0.00000
      6       7.2187      0.00000
      7       8.0681      0.00000
      8       8.9561      0.00000

 k-point    52 :      -0.4167    0.2500    0.0833
  band No.  band energies     occupation 
      1      -4.6234      2.00000
      2      -2.4210      2.00000
      3       0.8362      2.00000
      4       1.9528      2.00000
      5       5.8003      0.00000
      6       7.1902      0.00000
      7       8.7028      0.00000
      8       9.3318      0.00000

 k-point    53 :      -0.3333    0.2500    0.0833
  band No.  band energies     occupation 
      1      -4.7207      2.00000
      2      -2.2858      2.00000
      3       0.7628      2.00000
      4       2.0801      2.00000
      5       5.9169      0.00000
      6       7.1204      0.00000
      7       8.6300      0.00000
      8       9.6420      0.00000

 k-point    54 :      -0.2500    0.2500    0.0833
  band No.  band energies     occupation 
      1      -5.1575      2.00000
      2      -1.6368      2.00000
      3       0.8699      2.00000
      4       2.3167      2.00000
      5       6.0856      0.00000
      6       7.0147      0.00000
      7       8.2704      0.00000
      8       8.8245      0.00000

 k-point    55 :      -0.1667    0.2500    0.0833
  band No.  band energies     occupation 
      1      -5.6240      2.00000
      2      -0.8603      2.00000
      3       1.2333      2.00000
      4       2.6010      2.00000
      5       6.2097      0.00000
      6       6.5931      0.00000
      7       8.0358      0.00000
      8       8.2888      0.00000

 k-point    56 :       0.4167    0.3333    0.0833
  band No.  band energies     occupation 
      1      -5.2304      2.00000
      2      -1.3786      2.00000
      3       1.4160      2.00000
      4       1.7444      2.00000
      5       5.1469      0.00000
      6       6.1006      0.00000
      7       8.8238      0.00000
      8       9.7858      0.00000

 k-point    57 :       0.5000    0.3333    0.0833
  band No.  band energies     occupation 
      1      -4.7586      2.00000
      2      -2.0511      2.00000
      3       0.9682      2.00000
      4       1.5855      2.00000
      5       5.4405      0.00000
      6       6.5123      0.00000
      7       8.6007      0.00000
      8      10.0957      0.00000

 k-point    58 :      -0.4167    0.3333    0.0833
  band No.  band energies     occupation 
      1      -4.3214      2.00000
      2      -2.5930      2.00000
      3       0.5717      2.00000
      4       1.5885      2.00000
      5       5.5597      0.00000
      6       7.5871      0.00000
      7       8.3773      0.00000
      8       9.9763      0.00000

 k-point    59 :      -0.3333    0.3333    0.0833
  band No.  band energies     occupation 
      1      -4.2833      2.00000
      2      -2.6328      2.00000
      3       0.3617      2.00000
      4       1.7381      2.00000
      5       5.7288      0.00000
      6       8.1543      0.00000
      7       8.9781      0.00000
      8       9.3251      0.00000

 k-point    60 :      -0.2500    0.3333    0.0833
  band No.  band energies     occupation 
      1      -4.6870      2.00000
      2      -2.1651      2.00000
      3       0.4339      2.00000
      4       2.0004      2.00000
      5       5.9620      0.00000
      6       7.8012      0.00000
      7       8.4601      0.00000
      8       9.5398      0.00000

 k-point    61 :       0.5000    0.4167    0.0833
  band No.  band energies     occupation 
      1      -4.4272      2.00000
      2      -2.4640      2.00000
      3       1.1901      2.00000
      4       1.3503      2.00000
      5       5.0430      0.00000
      6       5.5320      0.00000
      7       9.9625      0.00000
      8      10.9909      0.00000

 k-point    62 :      -0.4167    0.4167    0.0833
  band No.  band energies     occupation 
      1      -3.9447      2.00000
      2      -2.9853      2.00000
      3       0.7485      2.00000
      4       1.3142      2.00000
      5       5.3032      0.00000
      6       6.2242      0.00000
      7       9.7316      0.00000
      8      10.7540      0.00000

 k-point    63 :      -0.3333    0.4167    0.0833
  band No.  band energies     occupation 
      1      -3.8630      2.00000
      2      -3.0485      2.00000
      3       0.3888      2.00000
      4       1.4661      2.00000
      5       5.4748      0.00000
      6       7.4959      0.00000
      7       9.3903      0.00000
      8       9.6353      0.00000

 k-point    64 :      -0.4167    0.5000    0.0833
  band No.  band energies     occupation 
      1      -3.4936      2.00000
      2      -3.4936      2.00000
      3       1.1654      2.00000
      4       1.1654      2.00000
      5       5.1668      0.00000
      6       5.1668      0.00000
      7      11.0752      0.00000
      8      11.0752      0.00000

 k-point    65 :       0.5000    0.3333    0.1667
  band No.  band energies     occupation 
      1      -5.0164      2.00000
      2      -1.7201      2.00000
      3       0.8674      2.00000
      4       1.8475      2.00000
      5       6.3254      0.00000
      6       6.8051      0.00000
      7       7.6002      0.00000
      8       9.6822      0.00000

 k-point    66 :      -0.4167    0.3333    0.1667
  band No.  band energies     occupation 
      1      -4.5415      2.00000
      2      -2.3308      2.00000
      3       0.5870      2.00000
      4       1.6031      2.00000
      5       6.5643      0.00000
      6       7.0624      0.00000
      7       7.9259      0.00000
      8       9.9739      0.00000

 k-point    67 :      -0.3333    0.3333    0.1667
  band No.  band energies     occupation 
      1      -4.2815      2.00000
      2      -2.6442      2.00000
      3       0.5017      2.00000
      4       1.5091      2.00000
      5       6.5945      0.00000
      6       7.0122      0.00000
      7       9.0873      0.00000
      8       9.1653      0.00000

 k-point    68 :      -0.4167    0.4167    0.1667
  band No.  band energies     occupation 
      1      -4.2794      2.00000
      2      -2.5874      2.00000
      3       0.7249      2.00000
      4       1.2191      2.00000
      5       6.2165      0.00000
      6       6.5843      0.00000
      7       8.3237      0.00000
      8      10.5429      0.00000

 k-point    69 :      -0.3333    0.4167    0.1667
  band No.  band energies     occupation 
      1      -3.8884      2.00000
      2      -2.9921      2.00000
      3       0.5058      2.00000
      4       1.1013      2.00000
      5       6.5015      0.00000
      6       7.6275      0.00000
      7       8.0692      0.00000
      8       9.2621      0.00000

 k-point    70 :      -0.2500    0.4167    0.1667
  band No.  band energies     occupation 
      1      -4.0746      2.00000
      2      -2.7964      2.00000
      3       0.4107      2.00000
      4       1.2694      2.00000
      5       6.7141      0.00000
      6       7.7190      0.00000
      7       8.0634      0.00000
      8       9.0675      0.00000

 k-point    71 :      -0.3333    0.5000    0.1667
  band No.  band energies     occupation 
      1      -3.4534      2.00000
      2      -3.4534      2.00000
      3       0.8366      2.00000
      4       0.8366      2.00000
      5       6.3020      0.00000
      6       6.3020      0.00000
      7       9.4721      0.00000
      8       9.4721      0.00000

 k-point    72 :      -0.2500    0.5000    0.2500
  band No.  band energies     occupation 
      1      -3.4325      2.00000
      2      -3.4325      2.00000
      3       0.6950      2.00000
      4       0.6950      2.00000
      5       7.7172      0.00000
      6       7.7172      0.00000
      7       7.8739      0.00000
      8       7.8739      0.00000


--------------------------------------------------------------------------------------------------------


 soft charge-density along one line, spin component           1
         0         1         2         3         4         5         6         7         8         9
 total charge-density along one line
 
 pseudopotential strength for first ion, spin component:           1
 18.672   0.001   0.000   0.000   0.000  -0.000  -0.000  -0.000
  0.001   0.006  -0.000  -0.000  -0.000   0.000   0.000   0.000
  0.000  -0.000   4.205  -0.000  -0.000  -0.003   0.000   0.000
  0.000  -0.000  -0.000   4.205  -0.000   0.000  -0.003   0.000
  0.000  -0.000  -0.000  -0.000   4.205   0.000   0.000  -0.003
 -0.000   0.000  -0.003   0.000   0.000   0.005  -0.000  -0.000
 -0.000   0.000   0.000  -0.003   0.000  -0.000   0.005  -0.000
 -0.000   0.000   0.000   0.000  -0.003  -0.000  -0.000   0.005
 total augmentation occupancy for first ion, spin component:           1
  1.563  -0.460  -0.000  -0.000  -0.000   0.000  -0.000   0.000
 -0.460   0.425   0.000  -0.000  -0.000   0.000   0.000   0.000
 -0.000   0.000   0.881   0.000   0.000  -0.392   0.000   0.000
  0.000  -0.000   0.000   0.881   0.000   0.000  -0.392   0.000
 -0.000  -0.000  -0.000   0.000   0.881   0.000   0.000  -0.392
  0.000   0.000  -0.392   0.000   0.000   0.210  -0.000   0.000
 -0.000   0.000   0.000  -0.392   0.000  -0.000   0.210   0.000
  0.000  -0.000   0.000   0.000  -0.392  -0.000   0.000   0.210


------------------------ aborting loop because EDIFF is reached ----------------------------------------


    CHARGE:  cpu time    0.03: real time    0.05
    FORLOC:  cpu time    0.00: real time    0.00
    FORNL :  cpu time    0.04: real time    0.04
    STRESS:  cpu time    0.33: real time    0.34
    FORCOR:  cpu time    0.02: real time    0.02
    FORHAR:  cpu time    0.00: real time    0.01
    MIXING:  cpu time    0.00: real time    0.00
    OFIELD:  cpu time    0.00: real time    0.00

  FORCE on cell =-STRESS in cart. coord.  units (eV):
  Direction    XX          YY          ZZ          XY          YZ          ZX
  --------------------------------------------------------------------------------------
  Alpha Z     2.63727     2.63727     2.63727
  Ewald     -70.24997   -70.24997   -70.24997    -0.00000    -0.00000    -0.00000
  Hartree     5.98965     5.98965     5.98965     0.00000     0.00000     0.00000
  E(xc)     -24.11012   -24.11012   -24.11012    -0.00000    -0.00000    -0.00000
  Local     -32.96453   -32.96453   -32.96453     0.00001     0.00001     0.00001
  n-local    75.77731    77.19230    71.55962     1.82367    -0.99850     0.35489
  augment   -11.79447   -11.79447   -11.79447    -0.00001    -0.00001    -0.00001
  Kinetic    53.96429    52.99882    48.55343     3.58684    -1.03451     1.03075
  Fock        0.00000     0.00000     0.00000     0.00000     0.00000     0.00000
  -------------------------------------------------------------------------------------
  Total      -3.81024    -3.81024    -3.81024     0.00000     0.00000     0.00000
  in kB    -119.56520  -119.56520  -119.56520     0.00000     0.00000     0.00000
  external pressure =     -119.57 kB  Pullay stress =        0.00 kB


 VOLUME and BASIS-vectors are now :
 -----------------------------------------------------------------------------
  energy-cutoff  :      600.00
  volume of cell :       51.06
      direct lattice vectors                 reciprocal lattice vectors
     0.000000000  2.944486373  2.944486373    -0.169808903  0.169808903  0.169808903
     2.944486373  0.000000000  2.944486373     0.169808903 -0.169808903  0.169808903
     2.944486373  2.944486373  0.000000000     0.169808903  0.169808903 -0.169808903

  length of vectors
     4.164132563  4.164132563  4.164132563     0.294117647  0.294117647  0.294117647


 FORCES acting on ions
    electron-ion (+dipol)            ewald-force                    non-local-force                 convergence-correction
 -----------------------------------------------------------------------------------------------
   0.779E-07 0.779E-07 0.702E-07   0.558E-14 0.170E-14 0.103E-13   0.208E-16 0.208E-16 -.520E-17   -.256E-14 -.408E-14 0.155E-14
   -.779E-07 -.779E-07 -.702E-07   -.569E-14 -.165E-14 -.104E-13   0.208E-16 0.694E-17 0.156E-16   0.367E-14 0.488E-15 -.190E-14
 -----------------------------------------------------------------------------------------------
   0.104E-12 0.391E-13 0.403E-14   -.119E-15 0.479E-16 -.700E-16   0.416E-16 0.278E-16 0.104E-16   0.111E-14 -.359E-14 -.345E-15
 
 
 POSITION                                       TOTAL-FORCE (eV/Angst)
 -----------------------------------------------------------------------------------
      0.00000      0.00000      0.00000         0.000000     -0.000000      0.000000
      1.47224      1.47224      1.47224        -0.000000      0.000000     -0.000000
 -----------------------------------------------------------------------------------
    total drift:                                0.000000      0.000000      0.000000


--------------------------------------------------------------------------------------------------------



  FREE ENERGIE OF THE ION-ELECTRON SYSTEM (eV)
  ---------------------------------------------------
  free  energy   TOTEN  =       -10.38278295 eV

  energy  without entropy=      -10.38278295  energy(sigma->0) =      -10.38278295
 


--------------------------------------------------------------------------------------------------------


    POTLOK:  cpu time    0.02: real time    0.03


--------------------------------------------------------------------------------------------------------


 writing wavefunctions
     LOOP+:  cpu time    9.57: real time   10.04
    4ORBIT:  cpu time    0.00: real time    0.00

 total amount of memory used by VASP on root node    46736. kBytes
========================================================================

   base      :      30000. kBytes
   nonl-proj :       8036. kBytes
   fftplans  :       1619. kBytes
   grid      :       3048. kBytes
   one-center:          6. kBytes
   wavefun   :       4027. kBytes
 
  
  
 General timing and accounting informations for this job:
 ========================================================
  
                  Total CPU time used (sec):       10.064
                            User time (sec):        9.792
                          System time (sec):        0.272
                         Elapsed time (sec):       10.668
  
                   Maximum memory used (kb):       54924.
                   Average memory used (kb):           0.
  
                          Minor page faults:         9054
                          Major page faults:            4
                 Voluntary context switches:          550
