 vasp.5.3.5 31Mar14 (build Jun 01 2017 17:55:53) complex                        
  
 executed on             LinuxIFC date 2020.11.10  15:17:45
 running on    4 total cores
 distrk:  each k-point on    4 cores,    1 groups
 distr:  one band on NCORES_PER_BAND=   1 cores,    4 groups


--------------------------------------------------------------------------------------------------------


 INCAR:
 POTCAR:   PAW_PBE Si 05Jan2001                   
 POTCAR:   PAW_PBE Si 05Jan2001                   
   VRHFIN =Si: s2p2                                                             
   LEXCH  = PE                                                                  
   EATOM  =   103.0669 eV,    7.5752 Ry                                         
                                                                                
   TITEL  = PAW_PBE Si 05Jan2001                                                
   LULTRA =        F    use ultrasoft PP ?                                      
   IUNSCR =        1    unscreen: 0-lin 1-nonlin 2-no                           
   RPACOR =    1.500    partial core radius                                     
   POMASS =   28.085; ZVAL   =    4.000    mass and valenz                      
   RCORE  =    1.900    outmost cutoff radius                                   
   RWIGS  =    2.480; RWIGS  =    1.312    wigner-seitz radius (au A)           
   ENMAX  =  245.345; ENMIN  =  184.009 eV                                      
   ICORE  =        2    local potential                                         
   LCOR   =        T    correct aug charges                                     
   LPAW   =        T    paw PP                                                  
   EAUG   =  322.069                                                            
   DEXC   =    -.007                                                            
   RMAX   =    2.944    core radius for proj-oper                               
   RAUG   =    1.300    factor for augmentation sphere                          
   RDEP   =    1.993    radius for radial grids                                 
   QCUT   =   -4.246; QGAM   =    8.493    optimization parameters              
                                                                                
   Description                                                                  
     l     E      TYP  RCUT    TYP  RCUT                                        
     0   .000     23  1.900                                                     
     0   .000     23  1.900                                                     
     1   .000     23  1.900                                                     
     1   .000     23  1.900                                                     
     2   .000      7  1.900                                                     
  local pseudopotential read in
  partial core-charges read in
  atomic valenz-charges read in
  non local Contribution for L=           0  read in
    real space projection operators read in
  non local Contribution for L=           0  read in
    real space projection operators read in
  non local Contribution for L=           1  read in
    real space projection operators read in
  non local Contribution for L=           1  read in
    real space projection operators read in
    PAW grid and wavefunctions read in
 
   number of l-projection  operators is LMAX  =           4
   number of lm-projection operators is LMMAX =           8
 
 PAW_PBE Si 05Jan2001                   :
 energy of atom  1       EATOM= -103.0669
 kinetic energy error for atom=    0.0003 (will be added to EATOM!!)
 
 
 POSCAR: Si
  positions in direct lattice
  velocities in cartesian coordinates
  No initial velocities read in
 exchange correlation table for  LEXCH =        8
   RHO(1)=    0.500       N(1)  =     2000
   RHO(2)=  100.500       N(2)  =     4000
 


--------------------------------------------------------------------------------------------------------


 ion  position               nearest neighbor table
   1  0.000  0.000  0.000-   2 2.40   2 2.40   2 2.40   2 2.40
   2  0.250  0.250  0.250-   1 2.40   1 2.40   1 2.40   1 2.40
 
  LATTYP: Found a face centered cubic cell.
 ALAT       =     5.5425625842
  
  Lattice vectors:
  
 A1 = (   0.0000000000,   2.7712812921,   2.7712812921)
 A2 = (   2.7712812921,   0.0000000000,   2.7712812921)
 A3 = (   2.7712812921,   2.7712812921,   0.0000000000)


Analysis of symmetry for initial positions (statically):
=====================================================================
 Subroutine PRICEL returns:
 Original cell was already a primitive cell.
 

 Routine SETGRP: Setting up the symmetry group for a 
 face centered cubic supercell.


 Subroutine GETGRP returns: Found 48 space group operations
 (whereof 24 operations were pure point group operations)
 out of a pool of 48 trial point group operations.


The static configuration has the point symmetry T_d .
 The point group associated with its full space group is O_h .


Analysis of symmetry for dynamics (positions and initial velocities):
=====================================================================
 Subroutine PRICEL returns:
 Original cell was already a primitive cell.
 

 Routine SETGRP: Setting up the symmetry group for a 
 face centered cubic supercell.


 Subroutine GETGRP returns: Found 48 space group operations
 (whereof 24 operations were pure point group operations)
 out of a pool of 48 trial point group operations.


The dynamic configuration has the point symmetry T_d .
 The point group associated with its full space group is O_h .


Analysis of constrained symmetry for selective dynamics:
=====================================================================
 Subroutine PRICEL returns:
 Original cell was already a primitive cell.
 

 Routine SETGRP: Setting up the symmetry group for a 
 face centered cubic supercell.


 Subroutine GETGRP returns: Found 48 space group operations
 (whereof 24 operations were pure point group operations)
 out of a pool of 48 trial point group operations.


The constrained configuration has the point symmetry T_d .
 The point group associated with its full space group is O_h .
 
 
 KPOINTS: Gamma centered Monkhorst-Pack           

Automatic generation of k-mesh.
Space group operators:
 irot       det(A)        alpha          n_x          n_y          n_z        tau_x        tau_y        tau_z
    1     1.000000     0.000000     1.000000     0.000000     0.000000     0.000000     0.000000     0.000000
    2     1.000000   120.000000    -0.577350    -0.577350    -0.577350     0.000000     0.000000     0.000000
    3     1.000000   120.000000     0.577350     0.577350     0.577350     0.000000     0.000000     0.000000
    4    -1.000000    90.000000     0.000000     0.000000    -1.000000     0.000000     0.000000     0.000000
    5    -1.000000   180.000000     0.000000     0.707107     0.707107     0.000000     0.000000     0.000000
    6    -1.000000    90.000000     0.000000     1.000000     0.000000     0.000000     0.000000     0.000000
    7     1.000000   180.000000     0.000000     0.000000     1.000000     0.000000     0.000000     0.000000
    8     1.000000   120.000000    -0.577350     0.577350     0.577350     0.000000     0.000000     0.000000
    9     1.000000   120.000000    -0.577350     0.577350    -0.577350     0.000000     0.000000     0.000000
   10    -1.000000    90.000000     0.000000     0.000000     1.000000     0.000000     0.000000     0.000000
   11    -1.000000    90.000000    -1.000000     0.000000     0.000000     0.000000     0.000000     0.000000
   12    -1.000000   180.000000     0.707107     0.000000     0.707107     0.000000     0.000000     0.000000
   13     1.000000   120.000000     0.577350    -0.577350     0.577350     0.000000     0.000000     0.000000
   14     1.000000   120.000000    -0.577350    -0.577350     0.577350     0.000000     0.000000     0.000000
   15     1.000000   180.000000     1.000000     0.000000     0.000000     0.000000     0.000000     0.000000
   16    -1.000000    90.000000     0.000000    -1.000000     0.000000     0.000000     0.000000     0.000000
   17    -1.000000   180.000000     0.707107     0.707107     0.000000     0.000000     0.000000     0.000000
   18    -1.000000    90.000000     1.000000     0.000000     0.000000     0.000000     0.000000     0.000000
   19     1.000000   120.000000     0.577350    -0.577350    -0.577350     0.000000     0.000000     0.000000
   20     1.000000   180.000000     0.000000     1.000000     0.000000     0.000000     0.000000     0.000000
   21     1.000000   120.000000     0.577350     0.577350    -0.577350     0.000000     0.000000     0.000000
   22    -1.000000   180.000000     0.000000    -0.707107     0.707107     0.000000     0.000000     0.000000
   23    -1.000000   180.000000     0.707107    -0.707107     0.000000     0.000000     0.000000     0.000000
   24    -1.000000   180.000000     0.707107     0.000000    -0.707107     0.000000     0.000000     0.000000
   25    -1.000000     0.000000     1.000000     0.000000     0.000000     0.250000     0.250000     0.250000
   26    -1.000000   120.000000    -0.577350    -0.577350    -0.577350     0.250000     0.250000     0.250000
   27    -1.000000   120.000000     0.577350     0.577350     0.577350     0.250000     0.250000     0.250000
   28     1.000000    90.000000     0.000000     0.000000    -1.000000     0.250000     0.250000     0.250000
   29     1.000000   180.000000     0.000000     0.707107     0.707107     0.250000     0.250000     0.250000
   30     1.000000    90.000000     0.000000     1.000000     0.000000     0.250000     0.250000     0.250000
   31    -1.000000   180.000000     0.000000     0.000000     1.000000     0.250000     0.250000     0.250000
   32    -1.000000   120.000000    -0.577350     0.577350     0.577350     0.250000     0.250000     0.250000
   33    -1.000000   120.000000    -0.577350     0.577350    -0.577350     0.250000     0.250000     0.250000
   34     1.000000    90.000000     0.000000     0.000000     1.000000     0.250000     0.250000     0.250000
   35     1.000000    90.000000    -1.000000     0.000000     0.000000     0.250000     0.250000     0.250000
   36     1.000000   180.000000     0.707107     0.000000     0.707107     0.250000     0.250000     0.250000
   37    -1.000000   120.000000     0.577350    -0.577350     0.577350     0.250000     0.250000     0.250000
   38    -1.000000   120.000000    -0.577350    -0.577350     0.577350     0.250000     0.250000     0.250000
   39    -1.000000   180.000000     1.000000     0.000000     0.000000     0.250000     0.250000     0.250000
   40     1.000000    90.000000     0.000000    -1.000000     0.000000     0.250000     0.250000     0.250000
   41     1.000000   180.000000     0.707107     0.707107     0.000000     0.250000     0.250000     0.250000
   42     1.000000    90.000000     1.000000     0.000000     0.000000     0.250000     0.250000     0.250000
   43    -1.000000   120.000000     0.577350    -0.577350    -0.577350     0.250000     0.250000     0.250000
   44    -1.000000   180.000000     0.000000     1.000000     0.000000     0.250000     0.250000     0.250000
   45    -1.000000   120.000000     0.577350     0.577350    -0.577350     0.250000     0.250000     0.250000
   46     1.000000   180.000000     0.000000    -0.707107     0.707107     0.250000     0.250000     0.250000
   47     1.000000   180.000000     0.707107    -0.707107     0.000000     0.250000     0.250000     0.250000
   48     1.000000   180.000000     0.707107     0.000000    -0.707107     0.250000     0.250000     0.250000
 
 Subroutine IBZKPT returns following result:
 ===========================================
 
 Found     72 irreducible k-points:
 
 Following reciprocal coordinates:
            Coordinates               Weight
  0.000000  0.000000  0.000000      1.000000
  0.083333  0.000000  0.000000      8.000000
  0.166667  0.000000  0.000000      8.000000
  0.250000  0.000000  0.000000      8.000000
  0.333333  0.000000  0.000000      8.000000
  0.416667  0.000000  0.000000      8.000000
  0.500000  0.000000  0.000000      4.000000
  0.083333  0.083333  0.000000      6.000000
  0.166667  0.083333  0.000000     24.000000
  0.250000  0.083333  0.000000     24.000000
  0.333333  0.083333  0.000000     24.000000
  0.416667  0.083333  0.000000     24.000000
  0.500000  0.083333  0.000000     24.000000
 -0.416667  0.083333  0.000000     24.000000
 -0.333333  0.083333  0.000000     24.000000
 -0.250000  0.083333  0.000000     24.000000
 -0.166667  0.083333  0.000000     24.000000
 -0.083333  0.083333  0.000000     12.000000
  0.166667  0.166667  0.000000      6.000000
  0.250000  0.166667  0.000000     24.000000
  0.333333  0.166667  0.000000     24.000000
  0.416667  0.166667  0.000000     24.000000
  0.500000  0.166667  0.000000     24.000000
 -0.416667  0.166667  0.000000     24.000000
 -0.333333  0.166667  0.000000     24.000000
 -0.250000  0.166667  0.000000     24.000000
 -0.166667  0.166667  0.000000     12.000000
  0.250000  0.250000  0.000000      6.000000
  0.333333  0.250000  0.000000     24.000000
  0.416667  0.250000  0.000000     24.000000
  0.500000  0.250000  0.000000     24.000000
 -0.416667  0.250000  0.000000     24.000000
 -0.333333  0.250000  0.000000     24.000000
 -0.250000  0.250000  0.000000     12.000000
  0.333333  0.333333  0.000000      6.000000
  0.416667  0.333333  0.000000     24.000000
  0.500000  0.333333  0.000000     24.000000
 -0.416667  0.333333  0.000000     24.000000
 -0.333333  0.333333  0.000000     12.000000
  0.416667  0.416667  0.000000      6.000000
  0.500000  0.416667  0.000000     24.000000
 -0.416667  0.416667  0.000000     12.000000
  0.500000  0.500000  0.000000      3.000000
  0.250000  0.166667  0.083333     24.000000
  0.333333  0.166667  0.083333     48.000000
  0.416667  0.166667  0.083333     48.000000
  0.500000  0.166667  0.083333     48.000000
 -0.416667  0.166667  0.083333     24.000000
  0.333333  0.250000  0.083333     24.000000
  0.416667  0.250000  0.083333     48.000000
  0.500000  0.250000  0.083333     48.000000
 -0.416667  0.250000  0.083333     48.000000
 -0.333333  0.250000  0.083333     48.000000
 -0.250000  0.250000  0.083333     48.000000
 -0.166667  0.250000  0.083333     24.000000
  0.416667  0.333333  0.083333     24.000000
  0.500000  0.333333  0.083333     48.000000
 -0.416667  0.333333  0.083333     48.000000
 -0.333333  0.333333  0.083333     48.000000
 -0.250000  0.333333  0.083333     24.000000
  0.500000  0.416667  0.083333     24.000000
 -0.416667  0.416667  0.083333     48.000000
 -0.333333  0.416667  0.083333     24.000000
 -0.416667  0.500000  0.083333     12.000000
  0.500000  0.333333  0.166667     24.000000
 -0.416667  0.333333  0.166667     48.000000
 -0.333333  0.333333  0.166667     24.000000
 -0.416667  0.416667  0.166667     24.000000
 -0.333333  0.416667  0.166667     48.000000
 -0.250000  0.416667  0.166667     24.000000
 -0.333333  0.500000  0.166667     12.000000
 -0.250000  0.500000  0.250000      6.000000
 
 Following cartesian coordinates:
            Coordinates               Weight
  0.000000  0.000000  0.000000      1.000000
 -0.083333  0.083333  0.083333      8.000000
 -0.166667  0.166667  0.166667      8.000000
 -0.250000  0.250000  0.250000      8.000000
 -0.333333  0.333333  0.333333      8.000000
 -0.416667  0.416667  0.416667      8.000000
 -0.500000  0.500000  0.500000      4.000000
  0.000000  0.000000  0.166667      6.000000
 -0.083333  0.083333  0.250000     24.000000
 -0.166667  0.166667  0.333333     24.000000
 -0.250000  0.250000  0.416667     24.000000
 -0.333333  0.333333  0.500000     24.000000
 -0.416667  0.416667  0.583333     24.000000
  0.500000 -0.500000 -0.333333     24.000000
  0.416667 -0.416667 -0.250000     24.000000
  0.333333 -0.333333 -0.166667     24.000000
  0.250000 -0.250000 -0.083333     24.000000
  0.166667 -0.166667  0.000000     12.000000
  0.000000  0.000000  0.333333      6.000000
 -0.083333  0.083333  0.416667     24.000000
 -0.166667  0.166667  0.500000     24.000000
 -0.250000  0.250000  0.583333     24.000000
 -0.333333  0.333333  0.666667     24.000000
  0.583333 -0.583333 -0.250000     24.000000
  0.500000 -0.500000 -0.166667     24.000000
  0.416667 -0.416667 -0.083333     24.000000
  0.333333 -0.333333  0.000000     12.000000
  0.000000  0.000000  0.500000      6.000000
 -0.083333  0.083333  0.583333     24.000000
 -0.166667  0.166667  0.666667     24.000000
 -0.250000  0.250000  0.750000     24.000000
  0.666667 -0.666667 -0.166667     24.000000
  0.583333 -0.583333 -0.083333     24.000000
  0.500000 -0.500000  0.000000     12.000000
  0.000000  0.000000  0.666667      6.000000
 -0.083333  0.083333  0.750000     24.000000
 -0.166667  0.166667  0.833333     24.000000
  0.750000 -0.750000 -0.083333     24.000000
  0.666667 -0.666667  0.000000     12.000000
  0.000000  0.000000  0.833333      6.000000
 -0.083333  0.083333  0.916667     24.000000
  0.833333 -0.833333  0.000000     12.000000
  0.000000  0.000000  1.000000      3.000000
  0.000000  0.166667  0.333333     24.000000
 -0.083333  0.250000  0.416667     48.000000
 -0.166667  0.333333  0.500000     48.000000
 -0.250000  0.416667  0.583333     48.000000
  0.666667 -0.500000 -0.333333     24.000000
 -0.000000  0.166667  0.500000     24.000000
 -0.083333  0.250000  0.583333     48.000000
 -0.166667  0.333333  0.666667     48.000000
  0.750000 -0.583333 -0.250000     48.000000
  0.666667 -0.500000 -0.166667     48.000000
  0.583333 -0.416667 -0.083333     48.000000
  0.500000 -0.333333  0.000000     24.000000
  0.000000  0.166667  0.666667     24.000000
 -0.083333  0.250000  0.750000     48.000000
  0.833333 -0.666667 -0.166667     48.000000
  0.750000 -0.583333 -0.083333     48.000000
  0.666667 -0.500000  0.000000     24.000000
  0.000000  0.166667  0.833333     24.000000
  0.916667 -0.750000 -0.083333     48.000000
  0.833333 -0.666667  0.000000     24.000000
  1.000000 -0.833333  0.000000     12.000000
  0.000000  0.333333  0.666667     24.000000
  0.916667 -0.583333 -0.250000     48.000000
  0.833333 -0.500000 -0.166667     24.000000
  1.000000 -0.666667 -0.166667     24.000000
  0.916667 -0.583333 -0.083333     48.000000
  0.833333 -0.500000  0.000000     24.000000
  1.000000 -0.666667  0.000000     12.000000
  1.000000 -0.500000  0.000000      6.000000
 


--------------------------------------------------------------------------------------------------------




 Dimension of arrays:
   k-points           NKPTS =     72   k-points in BZ     NKDIM =     72   number of bands    NBANDS=      8
   number of dos      NEDOS =    301   number of ions     NIONS =      2
   non local maximal  LDIM  =      4   non local SUM 2l+1 LMDIM =      8
   total plane-waves  NPLWV =  13824
   max r-space proj   IRMAX =      1   max aug-charges    IRDMAX=  11057
   dimension x,y,z NGX =    24 NGY =   24 NGZ =   24
   dimension x,y,z NGXF=    48 NGYF=   48 NGZF=   48
   support grid    NGXF=    48 NGYF=   48 NGZF=   48
   ions per type =               2
 NGX,Y,Z   is equivalent  to a cutoff of  10.18, 10.18, 10.18 a.u.
 NGXF,Y,Z  is equivalent  to a cutoff of  20.36, 20.36, 20.36 a.u.


 I would recommend the setting:
   dimension x,y,z NGX =    23 NGY =   23 NGZ =   23
 SYSTEM =  Si
 POSCAR =  Si

 Startparameter for this run:
   NWRITE =      2    write-flag & timer
   PREC   = normal    normal or accurate (medium, high low for compatibility)
   ISTART =      0    job   : 0-new  1-cont  2-samecut
   ICHARG =      2    charge: 1-file 2-atom 10-const
   ISPIN  =      1    spin polarized calculation?
   LNONCOLLINEAR =      F non collinear calculations
   LSORBIT =      F    spin-orbit coupling
   INIWAV =      1    electr: 0-lowe 1-rand  2-diag
   LASPH  =      F    aspherical Exc in radial PAW
   METAGGA=      F    non-selfconsistent MetaGGA calc.

 Electronic Relaxation 1
   ENCUT  =  600.0 eV  44.10 Ry    6.64 a.u.   7.83  7.83  7.83*2*pi/ulx,y,z
   ENINI  =  600.0     initial cutoff
   ENAUG  = 1200.0 eV  augmentation charge cutoff
   NELM   =    500;   NELMIN=  2; NELMDL= -5     # of ELM steps 
   EDIFF  = 0.1E-09   stopping-criterion for ELM
   LREAL  =      F    real-space projection
   NLSPLINE    = F    spline interpolate recip. space projectors
   LCOMPAT=      F    compatible to vasp.4.4
   GGA_COMPAT  = T    GGA compatible to vasp.4.4-vasp.4.6
   LMAXPAW     = -100 max onsite density
   LMAXMIX     =    2 max onsite mixed and CHGCAR
   VOSKOWN=      0    Vosko Wilk Nusair interpolation
   ROPT   =    0.00000
 Ionic relaxation
   EDIFFG = 0.1E-08   stopping-criterion for IOM
   NSW    =      0    number of steps for IOM
   NBLOCK =      1;   KBLOCK =      1    inner block; outer block 
   IBRION =     -1    ionic relax: 0-MD 1-quasi-New 2-CG
   NFREE  =      0    steps in history (QN), initial steepest desc. (CG)
   ISIF   =      2    stress and relaxation
   IWAVPR =     10    prediction:  0-non 1-charg 2-wave 3-comb
   ISYM   =      2    0-nonsym 1-usesym 2-fastsym
   LCORR  =      T    Harris-Foulkes like correction to forces

   POTIM  = 0.5000    time-step for ionic-motion
   TEIN   =    0.0    initial temperature
   TEBEG  =    0.0;   TEEND  =   0.0 temperature during run
   SMASS  =  -3.00    Nose mass-parameter (am)
   estimated Nose-frequenzy (Omega)   =  0.10E-29 period in steps =****** mass=  -0.351E-27a.u.
   SCALEE = 1.0000    scale energy and forces
   NPACO  =    256;   APACO  = 16.0  distance and # of slots for P.C.
   PSTRESS=    0.0 pullay stress

  Mass of Ions in am
   POMASS =  28.09
  Ionic Valenz
   ZVAL   =   4.00
  Atomic Wigner-Seitz radii
   RWIGS  =  -1.00
  virtual crystal weights 
   VCA    =   1.00
   NELECT =       8.0000    total number of electrons
   NUPDOWN=      -1.0000    fix difference up-down

 DOS related values:
   EMIN   =  10.00;   EMAX   =-10.00  energy-range for DOS
   EFERMI =   0.00
   ISMEAR =    -1;   SIGMA  =   0.03  broadening in eV -4-tet -1-fermi 0-gaus

 Electronic relaxation 2 (details)
   IALGO  =     38    algorithm
   LDIAG  =      T    sub-space diagonalisation (order eigenvalues)
   LSUBROT=      F    optimize rotation matrix (better conditioning)
   TURBO    =      0    0=normal 1=particle mesh
   IRESTART =      0    0=no restart 2=restart with 2 vectors
   NREBOOT  =      0    no. of reboots
   NMIN     =      0    reboot dimension
   EREF     =   0.00    reference energy to select bands
   IMIX   =      4    mixing-type and parameters
     AMIX     =   0.40;   BMIX     =  1.00
     AMIX_MAG =   1.60;   BMIX_MAG =  1.00
     AMIN     =   0.10
     WC   =   100.;   INIMIX=   1;  MIXPRE=   1;  MAXMIX= -45

 Intra band minimization:
   WEIMIN = 0.0000     energy-eigenvalue tresh-hold
   EBREAK =  0.31E-11  absolut break condition
   DEPER  =   0.30     relativ break condition  

   TIME   =   0.40     timestep for ELM

  volume/ion in A,a.u.               =      21.28       143.63
  Fermi-wavevector in a.u.,A,eV,Ry     =   0.937737  1.772065 11.964283  0.879350
  Thomas-Fermi vector in A             =   2.064878
 
 Write flags
   LWAVE  =      T    write WAVECAR
   LCHARG =      T    write CHGCAR
   LVTOT  =      F    write LOCPOT, total local potential
   LVHAR  =      F    write LOCPOT, Hartree potential only
   LELF   =      F    write electronic localiz. function (ELF)
   LORBIT =      0    0 simple, 1 ext, 2 COOP (PROOUT)


 Dipole corrections
   LMONO  =      F    monopole corrections only (constant potential shift)
   LDIPOL =      F    correct potential (dipole corrections)
   IDIPOL =      0    1-x, 2-y, 3-z, 4-all directions 
   EPSILON=  1.0000000 bulk dielectric constant

 Exchange correlation treatment:
   GGA     =    PE    GGA type
   LEXCH   =     8    internal setting for exchange type
   VOSKOWN=      0    Vosko Wilk Nusair interpolation
   LHFCALC =     F    Hartree Fock is set to
   LHFONE  =     F    Hartree Fock one center treatment
   AEXX    =    0.0000 exact exchange contribution

 Linear response parameters
   LEPSILON=     F    determine dielectric tensor
   LRPA    =     F    only Hartree local field effects (RPA)
   LNABLA  =     F    use nabla operator in PAW spheres
   LVEL    =     F    velocity operator in full k-point grid
   LINTERFAST=   F  fast interpolation
   KINTER  =     0    interpolate to denser k-point grid
   CSHIFT  =0.1000    complex shift for real part using Kramers Kronig
   OMEGAMAX=  -1.0    maximum frequency
   DEG_THRESHOLD= 0.2000000E-02 threshold for treating states as degnerate
   RTIME   =    0.100 relaxation time in fs

 Orbital magnetization related:
   ORBITALMAG=     F  switch on orbital magnetization
   LCHIMAG   =     F  perturbation theory with respect to B field
   DQ        =  0.001000  dq finite difference perturbation B field



--------------------------------------------------------------------------------------------------------


 Static calculation
 charge density and potential will be updated during run
 non-spin polarized calculation
 Variant of blocked Davidson
 Davidson routine will perform the subspace rotation
 perform sub-space diagonalisation
    after iterative eigenvector-optimisation
 modified Broyden-mixing scheme, WC =      100.0
 initial mixing is a Kerker type mixing with AMIX =  0.4000 and BMIX =      1.0000
 Hartree-type preconditioning will be used
 using additional bands            4
 reciprocal scheme for non local part
 use partial core corrections
 calculate Harris-corrections to forces 
   (improved forces if not selfconsistent)
 use gradient corrections 
 use of overlap-Matrix (Vanderbilt PP)
 Fermi-smearing in eV        SIGMA  =   0.03


--------------------------------------------------------------------------------------------------------


  energy-cutoff  :      600.00
  volume of cell :       42.57
      direct lattice vectors                 reciprocal lattice vectors
     0.000000000  2.771281292  2.771281292    -0.180421959  0.180421959  0.180421959
     2.771281292  0.000000000  2.771281292     0.180421959 -0.180421959  0.180421959
     2.771281292  2.771281292  0.000000000     0.180421959  0.180421959 -0.180421959

  length of vectors
     3.919183588  3.919183588  3.919183588     0.312500000  0.312500000  0.312500000


 
 k-points in units of 2pi/SCALE and weight: Gamma centered Monkhorst-Pack           
   0.00000000  0.00000000  0.00000000       0.001
  -0.08333333  0.08333333  0.08333333       0.005
  -0.16666667  0.16666667  0.16666667       0.005
  -0.25000000  0.25000000  0.25000000       0.005
  -0.33333333  0.33333333  0.33333333       0.005
  -0.41666667  0.41666667  0.41666667       0.005
  -0.50000000  0.50000000  0.50000000       0.002
   0.00000000  0.00000000  0.16666667       0.003
  -0.08333333  0.08333333  0.25000000       0.014
  -0.16666667  0.16666667  0.33333333       0.014
  -0.25000000  0.25000000  0.41666667       0.014
  -0.33333333  0.33333333  0.50000000       0.014
  -0.41666667  0.41666667  0.58333333       0.014
   0.50000000 -0.50000000 -0.33333333       0.014
   0.41666667 -0.41666667 -0.25000000       0.014
   0.33333333 -0.33333333 -0.16666667       0.014
   0.25000000 -0.25000000 -0.08333333       0.014
   0.16666667 -0.16666667  0.00000000       0.007
   0.00000000  0.00000000  0.33333333       0.003
  -0.08333333  0.08333333  0.41666667       0.014
  -0.16666667  0.16666667  0.50000000       0.014
  -0.25000000  0.25000000  0.58333333       0.014
  -0.33333333  0.33333333  0.66666667       0.014
   0.58333333 -0.58333333 -0.25000000       0.014
   0.50000000 -0.50000000 -0.16666667       0.014
   0.41666667 -0.41666667 -0.08333333       0.014
   0.33333333 -0.33333333  0.00000000       0.007
   0.00000000  0.00000000  0.50000000       0.003
  -0.08333333  0.08333333  0.58333333       0.014
  -0.16666667  0.16666667  0.66666667       0.014
  -0.25000000  0.25000000  0.75000000       0.014
   0.66666667 -0.66666667 -0.16666667       0.014
   0.58333333 -0.58333333 -0.08333333       0.014
   0.50000000 -0.50000000  0.00000000       0.007
   0.00000000  0.00000000  0.66666667       0.003
  -0.08333333  0.08333333  0.75000000       0.014
  -0.16666667  0.16666667  0.83333333       0.014
   0.75000000 -0.75000000 -0.08333333       0.014
   0.66666667 -0.66666667  0.00000000       0.007
   0.00000000  0.00000000  0.83333333       0.003
  -0.08333333  0.08333333  0.91666667       0.014
   0.83333333 -0.83333333  0.00000000       0.007
   0.00000000  0.00000000  1.00000000       0.002
   0.00000000  0.16666667  0.33333333       0.014
  -0.08333333  0.25000000  0.41666667       0.028
  -0.16666667  0.33333333  0.50000000       0.028
  -0.25000000  0.41666667  0.58333333       0.028
   0.66666667 -0.50000000 -0.33333333       0.014
  -0.00000000  0.16666667  0.50000000       0.014
  -0.08333333  0.25000000  0.58333333       0.028
  -0.16666667  0.33333333  0.66666667       0.028
   0.75000000 -0.58333333 -0.25000000       0.028
   0.66666667 -0.50000000 -0.16666667       0.028
   0.58333333 -0.41666667 -0.08333333       0.028
   0.50000000 -0.33333333  0.00000000       0.014
   0.00000000  0.16666667  0.66666667       0.014
  -0.08333333  0.25000000  0.75000000       0.028
   0.83333333 -0.66666667 -0.16666667       0.028
   0.75000000 -0.58333333 -0.08333333       0.028
   0.66666667 -0.50000000  0.00000000       0.014
   0.00000000  0.16666667  0.83333333       0.014
   0.91666667 -0.75000000 -0.08333333       0.028
   0.83333333 -0.66666667  0.00000000       0.014
   1.00000000 -0.83333333  0.00000000       0.007
   0.00000000  0.33333333  0.66666667       0.014
   0.91666667 -0.58333333 -0.25000000       0.028
   0.83333333 -0.50000000 -0.16666667       0.014
   1.00000000 -0.66666667 -0.16666667       0.014
   0.91666667 -0.58333333 -0.08333333       0.028
   0.83333333 -0.50000000  0.00000000       0.014
   1.00000000 -0.66666667  0.00000000       0.007
   1.00000000 -0.50000000  0.00000000       0.003
 
 k-points in reciprocal lattice and weights: Gamma centered Monkhorst-Pack           
   0.00000000  0.00000000  0.00000000       0.001
   0.08333333  0.00000000  0.00000000       0.005
   0.16666667  0.00000000  0.00000000       0.005
   0.25000000  0.00000000  0.00000000       0.005
   0.33333333  0.00000000  0.00000000       0.005
   0.41666667  0.00000000  0.00000000       0.005
   0.50000000  0.00000000  0.00000000       0.002
   0.08333333  0.08333333  0.00000000       0.003
   0.16666667  0.08333333  0.00000000       0.014
   0.25000000  0.08333333  0.00000000       0.014
   0.33333333  0.08333333  0.00000000       0.014
   0.41666667  0.08333333  0.00000000       0.014
   0.50000000  0.08333333  0.00000000       0.014
  -0.41666667  0.08333333  0.00000000       0.014
  -0.33333333  0.08333333  0.00000000       0.014
  -0.25000000  0.08333333  0.00000000       0.014
  -0.16666667  0.08333333  0.00000000       0.014
  -0.08333333  0.08333333  0.00000000       0.007
   0.16666667  0.16666667  0.00000000       0.003
   0.25000000  0.16666667  0.00000000       0.014
   0.33333333  0.16666667  0.00000000       0.014
   0.41666667  0.16666667  0.00000000       0.014
   0.50000000  0.16666667  0.00000000       0.014
  -0.41666667  0.16666667  0.00000000       0.014
  -0.33333333  0.16666667  0.00000000       0.014
  -0.25000000  0.16666667  0.00000000       0.014
  -0.16666667  0.16666667  0.00000000       0.007
   0.25000000  0.25000000  0.00000000       0.003
   0.33333333  0.25000000  0.00000000       0.014
   0.41666667  0.25000000  0.00000000       0.014
   0.50000000  0.25000000  0.00000000       0.014
  -0.41666667  0.25000000  0.00000000       0.014
  -0.33333333  0.25000000  0.00000000       0.014
  -0.25000000  0.25000000  0.00000000       0.007
   0.33333333  0.33333333  0.00000000       0.003
   0.41666667  0.33333333  0.00000000       0.014
   0.50000000  0.33333333  0.00000000       0.014
  -0.41666667  0.33333333  0.00000000       0.014
  -0.33333333  0.33333333  0.00000000       0.007
   0.41666667  0.41666667  0.00000000       0.003
   0.50000000  0.41666667  0.00000000       0.014
  -0.41666667  0.41666667  0.00000000       0.007
   0.50000000  0.50000000  0.00000000       0.002
   0.25000000  0.16666667  0.08333333       0.014
   0.33333333  0.16666667  0.08333333       0.028
   0.41666667  0.16666667  0.08333333       0.028
   0.50000000  0.16666667  0.08333333       0.028
  -0.41666667  0.16666667  0.08333333       0.014
   0.33333333  0.25000000  0.08333333       0.014
   0.41666667  0.25000000  0.08333333       0.028
   0.50000000  0.25000000  0.08333333       0.028
  -0.41666667  0.25000000  0.08333333       0.028
  -0.33333333  0.25000000  0.08333333       0.028
  -0.25000000  0.25000000  0.08333333       0.028
  -0.16666667  0.25000000  0.08333333       0.014
   0.41666667  0.33333333  0.08333333       0.014
   0.50000000  0.33333333  0.08333333       0.028
  -0.41666667  0.33333333  0.08333333       0.028
  -0.33333333  0.33333333  0.08333333       0.028
  -0.25000000  0.33333333  0.08333333       0.014
   0.50000000  0.41666667  0.08333333       0.014
  -0.41666667  0.41666667  0.08333333       0.028
  -0.33333333  0.41666667  0.08333333       0.014
  -0.41666667  0.50000000  0.08333333       0.007
   0.50000000  0.33333333  0.16666667       0.014
  -0.41666667  0.33333333  0.16666667       0.028
  -0.33333333  0.33333333  0.16666667       0.014
  -0.41666667  0.41666667  0.16666667       0.014
  -0.33333333  0.41666667  0.16666667       0.028
  -0.25000000  0.41666667  0.16666667       0.014
  -0.33333333  0.50000000  0.16666667       0.007
  -0.25000000  0.50000000  0.25000000       0.003
 
 position of ions in fractional coordinates (direct lattice) 
   0.00000000  0.00000000  0.00000000
   0.25000000  0.25000000  0.25000000
 
 position of ions in cartesian coordinates  (Angst):
   0.00000000  0.00000000  0.00000000
   1.38564065  1.38564065  1.38564065
 


--------------------------------------------------------------------------------------------------------


 k-point  1 :   0.0000 0.0000 0.0000  plane waves:    1411
 k-point  2 :   0.0833 0.0000 0.0000  plane waves:    1429
 k-point  3 :   0.1667 0.0000 0.0000  plane waves:    1417
 k-point  4 :   0.2500 0.0000 0.0000  plane waves:    1405
 k-point  5 :   0.3333 0.0000 0.0000  plane waves:    1411
 k-point  6 :   0.4167 0.0000 0.0000  plane waves:    1422
 k-point  7 :   0.5000 0.0000 0.0000  plane waves:    1404
 k-point  8 :   0.0833 0.0833 0.0000  plane waves:    1419
 k-point  9 :   0.1667 0.0833 0.0000  plane waves:    1420
 k-point 10 :   0.2500 0.0833 0.0000  plane waves:    1414
 k-point 11 :   0.3333 0.0833 0.0000  plane waves:    1412
 k-point 12 :   0.4167 0.0833 0.0000  plane waves:    1430
 k-point 13 :   0.5000 0.0833 0.0000  plane waves:    1429
 k-point 14 :  -0.4167 0.0833 0.0000  plane waves:    1425
 k-point 15 :  -0.3333 0.0833 0.0000  plane waves:    1419
 k-point 16 :  -0.2500 0.0833 0.0000  plane waves:    1417
 k-point 17 :  -0.1667 0.0833 0.0000  plane waves:    1406
 k-point 18 :  -0.0833 0.0833 0.0000  plane waves:    1419
 k-point 19 :   0.1667 0.1667 0.0000  plane waves:    1415
 k-point 20 :   0.2500 0.1667 0.0000  plane waves:    1417
 k-point 21 :   0.3333 0.1667 0.0000  plane waves:    1418
 k-point 22 :   0.4167 0.1667 0.0000  plane waves:    1428
 k-point 23 :   0.5000 0.1667 0.0000  plane waves:    1435
 k-point 24 :  -0.4167 0.1667 0.0000  plane waves:    1420
 k-point 25 :  -0.3333 0.1667 0.0000  plane waves:    1427
 k-point 26 :  -0.2500 0.1667 0.0000  plane waves:    1412
 k-point 27 :  -0.1667 0.1667 0.0000  plane waves:    1400
 k-point 28 :   0.2500 0.2500 0.0000  plane waves:    1427
 k-point 29 :   0.3333 0.2500 0.0000  plane waves:    1417
 k-point 30 :   0.4167 0.2500 0.0000  plane waves:    1422
 k-point 31 :   0.5000 0.2500 0.0000  plane waves:    1423
 k-point 32 :  -0.4167 0.2500 0.0000  plane waves:    1430
 k-point 33 :  -0.3333 0.2500 0.0000  plane waves:    1430
 k-point 34 :  -0.2500 0.2500 0.0000  plane waves:    1428
 k-point 35 :   0.3333 0.3333 0.0000  plane waves:    1427
 k-point 36 :   0.4167 0.3333 0.0000  plane waves:    1414
 k-point 37 :   0.5000 0.3333 0.0000  plane waves:    1420
 k-point 38 :  -0.4167 0.3333 0.0000  plane waves:    1430
 k-point 39 :  -0.3333 0.3333 0.0000  plane waves:    1430
 k-point 40 :   0.4167 0.4167 0.0000  plane waves:    1403
 k-point 41 :   0.5000 0.4167 0.0000  plane waves:    1412
 k-point 42 :  -0.4167 0.4167 0.0000  plane waves:    1422
 k-point 43 :   0.5000 0.5000 0.0000  plane waves:    1428
 k-point 44 :   0.2500 0.1667 0.0833  plane waves:    1407
 k-point 45 :   0.3333 0.1667 0.0833  plane waves:    1411
 k-point 46 :   0.4167 0.1667 0.0833  plane waves:    1422
 k-point 47 :   0.5000 0.1667 0.0833  plane waves:    1424
 k-point 48 :  -0.4167 0.1667 0.0833  plane waves:    1422
 k-point 49 :   0.3333 0.2500 0.0833  plane waves:    1411
 k-point 50 :   0.4167 0.2500 0.0833  plane waves:    1414
 k-point 51 :   0.5000 0.2500 0.0833  plane waves:    1417
 k-point 52 :  -0.4167 0.2500 0.0833  plane waves:    1425
 k-point 53 :  -0.3333 0.2500 0.0833  plane waves:    1426
 k-point 54 :  -0.2500 0.2500 0.0833  plane waves:    1421
 k-point 55 :  -0.1667 0.2500 0.0833  plane waves:    1412
 k-point 56 :   0.4167 0.3333 0.0833  plane waves:    1425
 k-point 57 :   0.5000 0.3333 0.0833  plane waves:    1421
 k-point 58 :  -0.4167 0.3333 0.0833  plane waves:    1427
 k-point 59 :  -0.3333 0.3333 0.0833  plane waves:    1423
 k-point 60 :  -0.2500 0.3333 0.0833  plane waves:    1423
 k-point 61 :   0.5000 0.4167 0.0833  plane waves:    1422
 k-point 62 :  -0.4167 0.4167 0.0833  plane waves:    1418
 k-point 63 :  -0.3333 0.4167 0.0833  plane waves:    1431
 k-point 64 :  -0.4167 0.5000 0.0833  plane waves:    1416
 k-point 65 :   0.5000 0.3333 0.1667  plane waves:    1413
 k-point 66 :  -0.4167 0.3333 0.1667  plane waves:    1422
 k-point 67 :  -0.3333 0.3333 0.1667  plane waves:    1422
 k-point 68 :  -0.4167 0.4167 0.1667  plane waves:    1421
 k-point 69 :  -0.3333 0.4167 0.1667  plane waves:    1424
 k-point 70 :  -0.2500 0.4167 0.1667  plane waves:    1424
 k-point 71 :  -0.3333 0.5000 0.1667  plane waves:    1422
 k-point 72 :  -0.2500 0.5000 0.2500  plane waves:    1424

 maximum and minimum number of plane-waves per node :      1435     1400

 maximum number of plane-waves:      1435
 maximum index in each direction: 
   IXMAX=    8   IYMAX=    7   IZMAX=    7
   IXMIN=   -8   IYMIN=   -8   IZMIN=   -8

 WARNING: aliasing errors must be expected set NGX to  34 to avoid them
 WARNING: aliasing errors must be expected set NGY to  32 to avoid them
 WARNING: aliasing errors must be expected set NGZ to  32 to avoid them
 aliasing errors are usually negligible using standard VASP settings
 and one can safely disregard these warnings

 serial   3D FFT for wavefunctions
 parallel 3D FFT for charge:
    minimum data exchange during FFTs selected (reduces bandwidth)


 total amount of memory used by VASP on root node    42965. kBytes
========================================================================

   base      :      30000. kBytes
   nonl-proj :       6663. kBytes
   fftplans  :       1025. kBytes
   grid      :       1926. kBytes
   one-center:          6. kBytes
   wavefun   :       3345. kBytes
 
     INWAV:  cpu time    0.00: real time    0.00
 Broyden mixing: mesh for mixing (old mesh)
   NGX = 15   NGY = 15   NGZ = 15
  (NGX  = 48   NGY  = 48   NGZ  = 48)
  gives a total of   3375 points

 initial charge density was supplied:
 charge density of overlapping atoms calculated
 number of electron       8.0000000 magnetization 
 keeping initial charge density in first step


--------------------------------------------------------------------------------------------------------


 Maximum index for augmentation-charges         2631 (set IRDMAX)


--------------------------------------------------------------------------------------------------------


 First call to EWALD:  gamma=   0.508
 Maximum number of real-space cells 3x 3x 3
 Maximum number of reciprocal cells 3x 3x 3

 FEWALD executed in parallel
    FEWALD:  cpu time    0.00: real time    0.00


----------------------------------------- Iteration    1(   1)  ---------------------------------------


    POTLOK:  cpu time    0.02: real time    0.01
    SETDIJ:  cpu time    0.00: real time    0.00
     EDDAV:  cpu time    0.29: real time    0.29
       DOS:  cpu time    0.00: real time    0.00
    --------------------------------------------
      LOOP:  cpu time    0.30: real time    0.31

 eigenvalue-minimisations  :  1152
 total energy-change (2. order) : 0.8386559E+01  (-0.3489671E+03)
 number of electron       8.0000000 magnetization 
 augmentation part        8.0000000 magnetization 

 Free energy of the ion-electron system (eV)
  ---------------------------------------------------
  alpha Z        PSCENC =         3.16331175
  Ewald energy   TEWEN  =      -223.92168270
  -Hartree energ DENC   =       -11.94425652
  -exchange      EXHF   =         0.00000000
  -V(xc)+E(xc)   XCENC  =       -18.83938895
  PAW double counting   =        65.95520812      -30.76852678
  entropy T*S    EENTRO =        -0.00093439
  eigenvalues    EBANDS =        18.60970962
  atomic energy  EATOM  =       206.13311910
  ---------------------------------------------------
  free energy    TOTEN  =         8.38655924 eV

  energy without entropy =        8.38749363  energy(sigma->0) =        8.38702644


--------------------------------------------------------------------------------------------------------




----------------------------------------- Iteration    1(   2)  ---------------------------------------


     EDDAV:  cpu time    0.39: real time    0.40
       DOS:  cpu time    0.00: real time    0.00
    --------------------------------------------
      LOOP:  cpu time    0.40: real time    0.40

 eigenvalue-minimisations  :  1752
 total energy-change (2. order) :-0.1910641E+02  (-0.1862769E+02)
 number of electron       8.0000000 magnetization 
 augmentation part        8.0000000 magnetization 

 Free energy of the ion-electron system (eV)
  ---------------------------------------------------
  alpha Z        PSCENC =         3.16331175
  Ewald energy   TEWEN  =      -223.92168270
  -Hartree energ DENC   =       -11.94425652
  -exchange      EXHF   =         0.00000000
  -V(xc)+E(xc)   XCENC  =       -18.83938895
  PAW double counting   =        65.95520812      -30.76852678
  entropy T*S    EENTRO =        -0.00000000
  eigenvalues    EBANDS =        -0.49763127
  atomic energy  EATOM  =       206.13311910
  ---------------------------------------------------
  free energy    TOTEN  =       -10.71984726 eV

  energy without entropy =      -10.71984726  energy(sigma->0) =      -10.71984726


--------------------------------------------------------------------------------------------------------




----------------------------------------- Iteration    1(   3)  ---------------------------------------


     EDDAV:  cpu time    0.34: real time    0.35
       DOS:  cpu time    0.00: real time    0.00
    --------------------------------------------
      LOOP:  cpu time    0.34: real time    0.35

 eigenvalue-minimisations  :  1528
 total energy-change (2. order) :-0.2577604E+00  (-0.2577604E+00)
 number of electron       8.0000000 magnetization 
 augmentation part        8.0000000 magnetization 

 Free energy of the ion-electron system (eV)
  ---------------------------------------------------
  alpha Z        PSCENC =         3.16331175
  Ewald energy   TEWEN  =      -223.92168270
  -Hartree energ DENC   =       -11.94425652
  -exchange      EXHF   =         0.00000000
  -V(xc)+E(xc)   XCENC  =       -18.83938895
  PAW double counting   =        65.95520812      -30.76852678
  entropy T*S    EENTRO =        -0.00000000
  eigenvalues    EBANDS =        -0.75539171
  atomic energy  EATOM  =       206.13311910
  ---------------------------------------------------
  free energy    TOTEN  =       -10.97760770 eV

  energy without entropy =      -10.97760770  energy(sigma->0) =      -10.97760770


--------------------------------------------------------------------------------------------------------




----------------------------------------- Iteration    1(   4)  ---------------------------------------


     EDDAV:  cpu time    0.40: real time    0.40
       DOS:  cpu time    0.00: real time    0.00
    --------------------------------------------
      LOOP:  cpu time    0.40: real time    0.40

 eigenvalue-minimisations  :  1848
 total energy-change (2. order) :-0.1090325E-02  (-0.1090325E-02)
 number of electron       8.0000000 magnetization 
 augmentation part        8.0000000 magnetization 

 Free energy of the ion-electron system (eV)
  ---------------------------------------------------
  alpha Z        PSCENC =         3.16331175
  Ewald energy   TEWEN  =      -223.92168270
  -Hartree energ DENC   =       -11.94425652
  -exchange      EXHF   =         0.00000000
  -V(xc)+E(xc)   XCENC  =       -18.83938895
  PAW double counting   =        65.95520812      -30.76852678
  entropy T*S    EENTRO =        -0.00000000
  eigenvalues    EBANDS =        -0.75648203
  atomic energy  EATOM  =       206.13311910
  ---------------------------------------------------
  free energy    TOTEN  =       -10.97869802 eV

  energy without entropy =      -10.97869802  energy(sigma->0) =      -10.97869802


--------------------------------------------------------------------------------------------------------




----------------------------------------- Iteration    1(   5)  ---------------------------------------


     EDDAV:  cpu time    0.34: real time    0.34
       DOS:  cpu time    0.00: real time    0.00
    CHARGE:  cpu time    0.02: real time    0.02
    MIXING:  cpu time    0.00: real time    0.00
    --------------------------------------------
      LOOP:  cpu time    0.35: real time    0.36

 eigenvalue-minimisations  :  1488
 total energy-change (2. order) :-0.1532383E-05  (-0.1532275E-05)
 number of electron       8.0000001 magnetization 
 augmentation part       -0.4678977 magnetization 

 Broyden mixing:
  rms(total) = 0.28598E+00    rms(broyden)= 0.28598E+00
  rms(prec ) = 0.81547E+00
  weight for this iteration     100.00

 Free energy of the ion-electron system (eV)
  ---------------------------------------------------
  alpha Z        PSCENC =         3.16331175
  Ewald energy   TEWEN  =      -223.92168270
  -Hartree energ DENC   =       -11.94425652
  -exchange      EXHF   =         0.00000000
  -V(xc)+E(xc)   XCENC  =       -18.83938895
  PAW double counting   =        65.95520812      -30.76852678
  entropy T*S    EENTRO =        -0.00000000
  eigenvalues    EBANDS =        -0.75648356
  atomic energy  EATOM  =       206.13311910
  ---------------------------------------------------
  free energy    TOTEN  =       -10.97869955 eV

  energy without entropy =      -10.97869955  energy(sigma->0) =      -10.97869955


--------------------------------------------------------------------------------------------------------




----------------------------------------- Iteration    1(   6)  ---------------------------------------


    POTLOK:  cpu time    0.02: real time    0.01
    SETDIJ:  cpu time    0.00: real time    0.00
     EDDAV:  cpu time    0.32: real time    0.32
       DOS:  cpu time    0.00: real time    0.00
    CHARGE:  cpu time    0.02: real time    0.02
    MIXING:  cpu time    0.00: real time    0.00
    --------------------------------------------
      LOOP:  cpu time    0.35: real time    0.36

 eigenvalue-minimisations  :  1448
 total energy-change (2. order) : 0.1001372E+00  (-0.6345216E-02)
 number of electron       8.0000001 magnetization 
 augmentation part       -0.4628858 magnetization 

 Broyden mixing:
  rms(total) = 0.17097E+00    rms(broyden)= 0.17097E+00
  rms(prec ) = 0.48526E+00
  weight for this iteration     100.00

 eigenvalues of (default mixing * dielectric matrix)
  average eigenvalue GAMMA=   2.4667
  2.4667

 Free energy of the ion-electron system (eV)
  ---------------------------------------------------
  alpha Z        PSCENC =         3.16331175
  Ewald energy   TEWEN  =      -223.92168270
  -Hartree energ DENC   =       -13.34040559
  -exchange      EXHF   =         0.00000000
  -V(xc)+E(xc)   XCENC  =       -18.62168352
  PAW double counting   =        69.14210289      -34.04306149
  entropy T*S    EENTRO =        -0.00000000
  eigenvalues    EBANDS =         0.60973721
  atomic energy  EATOM  =       206.13311910
  ---------------------------------------------------
  free energy    TOTEN  =       -10.87856236 eV

  energy without entropy =      -10.87856236  energy(sigma->0) =      -10.87856236


--------------------------------------------------------------------------------------------------------




----------------------------------------- Iteration    1(   7)  ---------------------------------------


    POTLOK:  cpu time    0.01: real time    0.01
    SETDIJ:  cpu time    0.00: real time    0.00
     EDDAV:  cpu time    0.32: real time    0.33
       DOS:  cpu time    0.00: real time    0.00
    CHARGE:  cpu time    0.02: real time    0.02
    MIXING:  cpu time    0.00: real time    0.00
    --------------------------------------------
      LOOP:  cpu time    0.36: real time    0.37

 eigenvalue-minimisations  :  1472
 total energy-change (2. order) : 0.4793905E-01  (-0.1241445E-01)
 number of electron       8.0000001 magnetization 
 augmentation part       -0.4568642 magnetization 

 Broyden mixing:
  rms(total) = 0.14105E-01    rms(broyden)= 0.14105E-01
  rms(prec ) = 0.36435E-01
  weight for this iteration     100.00

 eigenvalues of (default mixing * dielectric matrix)
  average eigenvalue GAMMA=   2.4732
  2.4732  2.4732

 Free energy of the ion-electron system (eV)
  ---------------------------------------------------
  alpha Z        PSCENC =         3.16331175
  Ewald energy   TEWEN  =      -223.92168270
  -Hartree energ DENC   =       -15.64296325
  -exchange      EXHF   =         0.00000000
  -V(xc)+E(xc)   XCENC  =       -18.25408076
  PAW double counting   =        73.29544160      -38.30738623
  entropy T*S    EENTRO =        -0.00000001
  eigenvalues    EBANDS =         2.70361719
  atomic energy  EATOM  =       206.13311910
  ---------------------------------------------------
  free energy    TOTEN  =       -10.83062331 eV

  energy without entropy =      -10.83062331  energy(sigma->0) =      -10.83062331


--------------------------------------------------------------------------------------------------------




----------------------------------------- Iteration    1(   8)  ---------------------------------------


    POTLOK:  cpu time    0.01: real time    0.02
    SETDIJ:  cpu time    0.00: real time    0.00
     EDDAV:  cpu time    0.31: real time    0.38
       DOS:  cpu time    0.00: real time    0.00
    CHARGE:  cpu time    0.02: real time    0.02
    MIXING:  cpu time    0.00: real time    0.00
    --------------------------------------------
      LOOP:  cpu time    0.34: real time    0.42

 eigenvalue-minimisations  :  1344
 total energy-change (2. order) :-0.1338622E-02  (-0.3763218E-03)
 number of electron       8.0000001 magnetization 
 augmentation part       -0.4577842 magnetization 

 Broyden mixing:
  rms(total) = 0.25414E-02    rms(broyden)= 0.25414E-02
  rms(prec ) = 0.83443E-02
  weight for this iteration     100.00

 eigenvalues of (default mixing * dielectric matrix)
  average eigenvalue GAMMA=   2.1284
  1.3178  2.8151  2.2523

 Free energy of the ion-electron system (eV)
  ---------------------------------------------------
  alpha Z        PSCENC =         3.16331175
  Ewald energy   TEWEN  =      -223.92168270
  -Hartree energ DENC   =       -15.60711737
  -exchange      EXHF   =         0.00000000
  -V(xc)+E(xc)   XCENC  =       -18.24946391
  PAW double counting   =        72.43508042      -37.42040418
  entropy T*S    EENTRO =        -0.00000001
  eigenvalues    EBANDS =         2.63519495
  atomic energy  EATOM  =       206.13311910
  ---------------------------------------------------
  free energy    TOTEN  =       -10.83196194 eV

  energy without entropy =      -10.83196193  energy(sigma->0) =      -10.83196193


--------------------------------------------------------------------------------------------------------




----------------------------------------- Iteration    1(   9)  ---------------------------------------


    POTLOK:  cpu time    0.01: real time    0.01
    SETDIJ:  cpu time    0.00: real time    0.00
     EDDAV:  cpu time    0.37: real time    0.40
       DOS:  cpu time    0.00: real time    0.00
    CHARGE:  cpu time    0.02: real time    0.02
    MIXING:  cpu time    0.00: real time    0.00
    --------------------------------------------
      LOOP:  cpu time    0.40: real time    0.44

 eigenvalue-minimisations  :  1736
 total energy-change (2. order) :-0.1109972E-03  (-0.1202874E-04)
 number of electron       8.0000001 magnetization 
 augmentation part       -0.4578402 magnetization 

 Broyden mixing:
  rms(total) = 0.14517E-02    rms(broyden)= 0.14517E-02
  rms(prec ) = 0.36529E-02
  weight for this iteration     100.00

 eigenvalues of (default mixing * dielectric matrix)
  average eigenvalue GAMMA=   2.2142
  0.9783  3.0711  2.4639  2.3434

 Free energy of the ion-electron system (eV)
  ---------------------------------------------------
  alpha Z        PSCENC =         3.16331175
  Ewald energy   TEWEN  =      -223.92168270
  -Hartree energ DENC   =       -15.64663174
  -exchange      EXHF   =         0.00000000
  -V(xc)+E(xc)   XCENC  =       -18.24305505
  PAW double counting   =        72.40585708      -37.39068344
  entropy T*S    EENTRO =        -0.00000000
  eigenvalues    EBANDS =         2.66769209
  atomic energy  EATOM  =       206.13311910
  ---------------------------------------------------
  free energy    TOTEN  =       -10.83207293 eV

  energy without entropy =      -10.83207293  energy(sigma->0) =      -10.83207293


--------------------------------------------------------------------------------------------------------




----------------------------------------- Iteration    1(  10)  ---------------------------------------


    POTLOK:  cpu time    0.01: real time    0.01
    SETDIJ:  cpu time    0.00: real time    0.00
     EDDAV:  cpu time    0.28: real time    0.29
       DOS:  cpu time    0.00: real time    0.00
    CHARGE:  cpu time    0.02: real time    0.03
    MIXING:  cpu time    0.00: real time    0.00
    --------------------------------------------
      LOOP:  cpu time    0.31: real time    0.34

 eigenvalue-minimisations  :  1296
 total energy-change (2. order) :-0.2151321E-04  (-0.3277617E-05)
 number of electron       8.0000001 magnetization 
 augmentation part       -0.4577628 magnetization 

 Broyden mixing:
  rms(total) = 0.15046E-03    rms(broyden)= 0.15046E-03
  rms(prec ) = 0.40782E-03
  weight for this iteration     100.00

 eigenvalues of (default mixing * dielectric matrix)
  average eigenvalue GAMMA=   2.0412
  3.1924  2.6025  2.1724  0.9772  1.2613

 Free energy of the ion-electron system (eV)
  ---------------------------------------------------
  alpha Z        PSCENC =         3.16331175
  Ewald energy   TEWEN  =      -223.92168270
  -Hartree energ DENC   =       -15.65884706
  -exchange      EXHF   =         0.00000000
  -V(xc)+E(xc)   XCENC  =       -18.24286176
  PAW double counting   =        72.41107087      -37.39707252
  entropy T*S    EENTRO =        -0.00000000
  eigenvalues    EBANDS =         2.68086787
  atomic energy  EATOM  =       206.13311910
  ---------------------------------------------------
  free energy    TOTEN  =       -10.83209445 eV

  energy without entropy =      -10.83209444  energy(sigma->0) =      -10.83209444


--------------------------------------------------------------------------------------------------------




----------------------------------------- Iteration    1(  11)  ---------------------------------------


    POTLOK:  cpu time    0.01: real time    0.04
    SETDIJ:  cpu time    0.00: real time    0.00
     EDDAV:  cpu time    0.40: real time    0.45
       DOS:  cpu time    0.00: real time    0.00
    CHARGE:  cpu time    0.02: real time    0.02
    MIXING:  cpu time    0.00: real time    0.00
    --------------------------------------------
      LOOP:  cpu time    0.44: real time    0.52

 eigenvalue-minimisations  :  1896
 total energy-change (2. order) : 0.6423903E-06  (-0.4800837E-07)
 number of electron       8.0000001 magnetization 
 augmentation part       -0.4577768 magnetization 

 Broyden mixing:
  rms(total) = 0.55574E-04    rms(broyden)= 0.55574E-04
  rms(prec ) = 0.10834E-03
  weight for this iteration     100.00

 eigenvalues of (default mixing * dielectric matrix)
  average eigenvalue GAMMA=   2.1440
  3.2446  2.8302  2.5963  2.1787  0.9785  1.0356

 Free energy of the ion-electron system (eV)
  ---------------------------------------------------
  alpha Z        PSCENC =         3.16331175
  Ewald energy   TEWEN  =      -223.92168270
  -Hartree energ DENC   =       -15.65666537
  -exchange      EXHF   =         0.00000000
  -V(xc)+E(xc)   XCENC  =       -18.24304248
  PAW double counting   =        72.40038711      -37.38593334
  entropy T*S    EENTRO =        -0.00000000
  eigenvalues    EBANDS =         2.67841213
  atomic energy  EATOM  =       206.13311910
  ---------------------------------------------------
  free energy    TOTEN  =       -10.83209380 eV

  energy without entropy =      -10.83209380  energy(sigma->0) =      -10.83209380


--------------------------------------------------------------------------------------------------------




----------------------------------------- Iteration    1(  12)  ---------------------------------------


    POTLOK:  cpu time    0.01: real time    0.01
    SETDIJ:  cpu time    0.00: real time    0.00
     EDDAV:  cpu time    0.28: real time    0.30
       DOS:  cpu time    0.00: real time    0.00
    CHARGE:  cpu time    0.02: real time    0.02
    MIXING:  cpu time    0.00: real time    0.00
    --------------------------------------------
      LOOP:  cpu time    0.31: real time    0.34

 eigenvalue-minimisations  :  1304
 total energy-change (2. order) : 0.9155940E-08  (-0.5735778E-08)
 number of electron       8.0000001 magnetization 
 augmentation part       -0.4577742 magnetization 

 Broyden mixing:
  rms(total) = 0.58050E-05    rms(broyden)= 0.58049E-05
  rms(prec ) = 0.19185E-04
  weight for this iteration     100.00

 eigenvalues of (default mixing * dielectric matrix)
  average eigenvalue GAMMA=   1.9928
  3.2791  2.7035  2.3535  2.3356  0.9743  1.0793  1.2243

 Free energy of the ion-electron system (eV)
  ---------------------------------------------------
  alpha Z        PSCENC =         3.16331175
  Ewald energy   TEWEN  =      -223.92168270
  -Hartree energ DENC   =       -15.65719549
  -exchange      EXHF   =         0.00000000
  -V(xc)+E(xc)   XCENC  =       -18.24299208
  PAW double counting   =        72.40237672      -37.38786249
  entropy T*S    EENTRO =        -0.00000000
  eigenvalues    EBANDS =         2.67883140
  atomic energy  EATOM  =       206.13311910
  ---------------------------------------------------
  free energy    TOTEN  =       -10.83209380 eV

  energy without entropy =      -10.83209379  energy(sigma->0) =      -10.83209379


--------------------------------------------------------------------------------------------------------




----------------------------------------- Iteration    1(  13)  ---------------------------------------


    POTLOK:  cpu time    0.01: real time    0.01
    SETDIJ:  cpu time    0.00: real time    0.00
     EDDAV:  cpu time    0.40: real time    0.41
       DOS:  cpu time    0.00: real time    0.00
    CHARGE:  cpu time    0.02: real time    0.02
    MIXING:  cpu time    0.00: real time    0.00
    --------------------------------------------
      LOOP:  cpu time    0.43: real time    0.45

 eigenvalue-minimisations  :  1920
 total energy-change (2. order) : 0.1474629E-07  (-0.6562312E-10)
 number of electron       8.0000001 magnetization 
 augmentation part       -0.4577746 magnetization 

 Broyden mixing:
  rms(total) = 0.18826E-05    rms(broyden)= 0.18826E-05
  rms(prec ) = 0.29740E-05
  weight for this iteration     100.00

 eigenvalues of (default mixing * dielectric matrix)
  average eigenvalue GAMMA=   2.0602
  3.2759  2.7742  2.7742  2.4881  2.2016  1.0157  0.9932  0.9587

 Free energy of the ion-electron system (eV)
  ---------------------------------------------------
  alpha Z        PSCENC =         3.16331175
  Ewald energy   TEWEN  =      -223.92168270
  -Hartree energ DENC   =       -15.65709761
  -exchange      EXHF   =         0.00000000
  -V(xc)+E(xc)   XCENC  =       -18.24300026
  PAW double counting   =        72.40196652      -37.38744325
  entropy T*S    EENTRO =        -0.00000000
  eigenvalues    EBANDS =         2.67873268
  atomic energy  EATOM  =       206.13311910
  ---------------------------------------------------
  free energy    TOTEN  =       -10.83209378 eV

  energy without entropy =      -10.83209378  energy(sigma->0) =      -10.83209378


--------------------------------------------------------------------------------------------------------




----------------------------------------- Iteration    1(  14)  ---------------------------------------


    POTLOK:  cpu time    0.01: real time    0.01
    SETDIJ:  cpu time    0.00: real time    0.00
     EDDAV:  cpu time    0.28: real time    0.30
       DOS:  cpu time    0.00: real time    0.00
    CHARGE:  cpu time    0.02: real time    0.02
    MIXING:  cpu time    0.00: real time    0.00
    --------------------------------------------
      LOOP:  cpu time    0.32: real time    0.33

 eigenvalue-minimisations  :  1272
 total energy-change (2. order) :-0.4956235E-08  (-0.7126884E-11)
 number of electron       8.0000001 magnetization 
 augmentation part       -0.4577747 magnetization 

 Broyden mixing:
  rms(total) = 0.30109E-06    rms(broyden)= 0.30108E-06
  rms(prec ) = 0.83441E-06
  weight for this iteration     100.00

 eigenvalues of (default mixing * dielectric matrix)
  average eigenvalue GAMMA=   1.9579
  3.2755  2.8890  2.2250  2.6304  2.4935  0.9503  0.9853  1.0242  1.1485

 Free energy of the ion-electron system (eV)
  ---------------------------------------------------
  alpha Z        PSCENC =         3.16331175
  Ewald energy   TEWEN  =      -223.92168270
  -Hartree energ DENC   =       -15.65708906
  -exchange      EXHF   =         0.00000000
  -V(xc)+E(xc)   XCENC  =       -18.24299943
  PAW double counting   =        72.40193578      -37.38741787
  entropy T*S    EENTRO =        -0.00000000
  eigenvalues    EBANDS =         2.67872866
  atomic energy  EATOM  =       206.13311910
  ---------------------------------------------------
  free energy    TOTEN  =       -10.83209379 eV

  energy without entropy =      -10.83209378  energy(sigma->0) =      -10.83209378


--------------------------------------------------------------------------------------------------------




----------------------------------------- Iteration    1(  15)  ---------------------------------------


    POTLOK:  cpu time    0.01: real time    0.02
    SETDIJ:  cpu time    0.00: real time    0.00
     EDDAV:  cpu time    0.27: real time    0.31
       DOS:  cpu time    0.00: real time    0.00
    CHARGE:  cpu time    0.02: real time    0.02
    MIXING:  cpu time    0.00: real time    0.00
    --------------------------------------------
      LOOP:  cpu time    0.30: real time    0.35

 eigenvalue-minimisations  :   912
 total energy-change (2. order) :-0.1213976E-08  (-0.1973831E-12)
 number of electron       8.0000001 magnetization 
 augmentation part       -0.4577747 magnetization 

 Broyden mixing:
  rms(total) = 0.49266E-07    rms(broyden)= 0.49202E-07
  rms(prec ) = 0.92850E-07
  weight for this iteration     100.00

 eigenvalues of (default mixing * dielectric matrix)
  average eigenvalue GAMMA=   2.0185
  3.2735  2.8620  2.6987  2.6987  2.2140  2.4724  1.0108  0.9954  0.9798  0.9798

 Free energy of the ion-electron system (eV)
  ---------------------------------------------------
  alpha Z        PSCENC =         3.16331175
  Ewald energy   TEWEN  =      -223.92168270
  -Hartree energ DENC   =       -15.65709183
  -exchange      EXHF   =         0.00000000
  -V(xc)+E(xc)   XCENC  =       -18.24299944
  PAW double counting   =        72.40195483      -37.38743777
  entropy T*S    EENTRO =        -0.00000000
  eigenvalues    EBANDS =         2.67873230
  atomic energy  EATOM  =       206.13311910
  ---------------------------------------------------
  free energy    TOTEN  =       -10.83209379 eV

  energy without entropy =      -10.83209378  energy(sigma->0) =      -10.83209378


--------------------------------------------------------------------------------------------------------




----------------------------------------- Iteration    1(  16)  ---------------------------------------


    POTLOK:  cpu time    0.02: real time    0.02
    SETDIJ:  cpu time    0.00: real time    0.00
     EDDAV:  cpu time    0.20: real time    0.22
       DOS:  cpu time    0.00: real time    0.00
    CHARGE:  cpu time    0.02: real time    0.02
    MIXING:  cpu time    0.00: real time    0.00
    --------------------------------------------
      LOOP:  cpu time    0.23: real time    0.26

 eigenvalue-minimisations  :   712
 total energy-change (2. order) : 0.1488161E-09  (-0.5180771E-13)
 number of electron       8.0000001 magnetization 
 augmentation part       -0.4577747 magnetization 

 Broyden mixing:
  rms(total) = 0.13912E-07    rms(broyden)= 0.13688E-07
  rms(prec ) = 0.39144E-07
  weight for this iteration     100.00

 eigenvalues of (default mixing * dielectric matrix)
  average eigenvalue GAMMA=   1.9352
  3.2820  2.2155  2.8774  2.7767  2.6238  2.5097  0.9726  1.0103  1.0103  1.0046
  1.0046

 Free energy of the ion-electron system (eV)
  ---------------------------------------------------
  alpha Z        PSCENC =         3.16331175
  Ewald energy   TEWEN  =      -223.92168270
  -Hartree energ DENC   =       -15.65709148
  -exchange      EXHF   =         0.00000000
  -V(xc)+E(xc)   XCENC  =       -18.24299955
  PAW double counting   =        72.40195433      -37.38743713
  entropy T*S    EENTRO =        -0.00000000
  eigenvalues    EBANDS =         2.67873190
  atomic energy  EATOM  =       206.13311910
  ---------------------------------------------------
  free energy    TOTEN  =       -10.83209379 eV

  energy without entropy =      -10.83209378  energy(sigma->0) =      -10.83209378


--------------------------------------------------------------------------------------------------------




----------------------------------------- Iteration    1(  17)  ---------------------------------------


    POTLOK:  cpu time    0.02: real time    0.02
    SETDIJ:  cpu time    0.00: real time    0.00
     EDDAV:  cpu time    0.19: real time    0.21
       DOS:  cpu time    0.00: real time    0.00
    --------------------------------------------
      LOOP:  cpu time    0.21: real time    0.23

 eigenvalue-minimisations  :   736
 total energy-change (2. order) :-0.2415845E-11  ( 0.6465983E-13)
 number of electron       8.0000001 magnetization 
 augmentation part       -0.4577747 magnetization 

 Free energy of the ion-electron system (eV)
  ---------------------------------------------------
  alpha Z        PSCENC =         3.16331175
  Ewald energy   TEWEN  =      -223.92168270
  -Hartree energ DENC   =       -15.65709172
  -exchange      EXHF   =         0.00000000
  -V(xc)+E(xc)   XCENC  =       -18.24299951
  PAW double counting   =        72.40195463      -37.38743742
  entropy T*S    EENTRO =        -0.00000000
  eigenvalues    EBANDS =         2.67873210
  atomic energy  EATOM  =       206.13311910
  ---------------------------------------------------
  free energy    TOTEN  =       -10.83209379 eV

  energy without entropy =      -10.83209378  energy(sigma->0) =      -10.83209378


--------------------------------------------------------------------------------------------------------




 average (electrostatic) potential at core
  the test charge radii are     0.9892
  (the norm of the test charge is              1.0000)
       1 -83.9236       2 -83.9236
 
 
 
 E-fermi :   5.5548     XC(G=0):  -9.1712     alpha+bet :-11.2691


 k-point     1 :       0.0000    0.0000    0.0000
  band No.  band energies     occupation 
      1      -6.3239      2.00000
      2       5.2238      2.00000
      3       5.2238      2.00000
      4       5.2238      2.00000
      5       7.7624      0.00000
      6       7.7624      0.00000
      7       7.7624      0.00000
      8       7.9067      0.00000

 k-point     2 :       0.0833    0.0000    0.0000
  band No.  band energies     occupation 
      1      -6.2376      2.00000
      2       4.3612      2.00000
      3       5.0895      2.00000
      4       5.0895      2.00000
      5       7.6728      0.00000
      6       7.9604      0.00000
      7       7.9604      0.00000
      8       8.7182      0.00000

 k-point     3 :       0.1667    0.0000    0.0000
  band No.  band energies     occupation 
      1      -5.9816      2.00000
      2       2.8847      2.00000
      3       4.7998      2.00000
      4       4.7998      2.00000
      5       7.3695      0.00000
      6       8.3760      0.00000
      7       8.3760      0.00000
      8      10.1768      0.00000

 k-point     4 :       0.2500    0.0000    0.0000
  band No.  band energies     occupation 
      1      -5.5670      2.00000
      2       1.4043      2.00000
      3       4.5043      2.00000
      4       4.5043      2.00000
      5       7.0412      0.00000
      6       8.6788      0.00000
      7       8.6788      0.00000
      8      11.6516      0.00000

 k-point     5 :       0.3333    0.0000    0.0000
  band No.  band energies     occupation 
      1      -5.0242      2.00000
      2       0.0660      2.00000
      3       4.2726      2.00000
      4       4.2726      2.00000
      5       6.7750      0.00000
      6       8.7150      0.00000
      7       8.7150      0.00000
      8      12.8128      0.00000

 k-point     6 :       0.4167    0.0000    0.0000
  band No.  band energies     occupation 
      1      -4.4474      2.00000
      2      -0.9982      2.00000
      3       4.1290      2.00000
      4       4.1290      2.00000
      5       6.6068      0.00000
      6       8.6309      0.00000
      7       8.6309      0.00000
      8      12.9319      0.00000

 k-point     7 :       0.5000    0.0000    0.0000
  band No.  band energies     occupation 
      1      -4.1433      2.00000
      2      -1.4663      2.00000
      3       4.0806      2.00000
      4       4.0806      2.00000
      5       6.5497      0.00000
      6       8.5862      0.00000
      7       8.5862      0.00000
      8      12.8698      0.00000

 k-point     8 :       0.0833    0.0833    0.0000
  band No.  band energies     occupation 
      1      -6.2086      2.00000
      2       4.4781      2.00000
      3       4.8259      2.00000
      4       4.8259      2.00000
      5       7.5032      0.00000
      6       8.3023      0.00000
      7       8.3023      0.00000
      8       8.6087      0.00000

 k-point     9 :       0.1667    0.0833    0.0000
  band No.  band energies     occupation 
      1      -6.0087      2.00000
      2       3.2993      2.00000
      3       4.4833      2.00000
      4       4.6389      2.00000
      5       7.5130      0.00000
      6       8.2417      0.00000
      7       8.8127      0.00000
      8       9.7238      0.00000

 k-point    10 :       0.2500    0.0833    0.0000
  band No.  band energies     occupation 
      1      -5.6453      2.00000
      2       1.8662      2.00000
      3       4.1847      2.00000
      4       4.3266      2.00000
      5       7.5484      0.00000
      6       8.2981      0.00000
      7       9.1959      0.00000
      8      10.4820      0.00000

 k-point    11 :       0.3333    0.0833    0.0000
  band No.  band energies     occupation 
      1      -5.1400      2.00000
      2       0.5010      2.00000
      3       3.9818      2.00000
      4       3.9882      2.00000
      5       7.3504      0.00000
      6       8.4662      0.00000
      7       9.2528      0.00000
      8      11.0863      0.00000

 k-point    12 :       0.4167    0.0833    0.0000
  band No.  band energies     occupation 
      1      -4.5554      2.00000
      2      -0.6606      2.00000
      3       3.7059      2.00000
      4       3.8924      2.00000
      5       7.1702      0.00000
      6       8.4818      0.00000
      7       9.0948      0.00000
      8      12.0834      0.00000

 k-point    13 :       0.5000    0.0833    0.0000
  band No.  band energies     occupation 
      1      -4.1054      2.00000
      2      -1.3769      2.00000
      3       3.5132      2.00000
      4       3.9177      2.00000
      5       7.0814      0.00000
      6       8.5026      0.00000
      7       8.9174      0.00000
      8      12.9828      0.00000

 k-point    14 :      -0.4167    0.0833    0.0000
  band No.  band energies     occupation 
      1      -4.2151      2.00000
      2      -1.2129      2.00000
      3       3.4272      2.00000
      4       4.0506      2.00000
      5       7.1002      0.00000
      6       8.6170      0.00000
      7       8.8110      0.00000
      8      13.0882      0.00000

 k-point    15 :      -0.3333    0.0833    0.0000
  band No.  band energies     occupation 
      1      -4.7527      2.00000
      2      -0.3028      2.00000
      3       3.4599      2.00000
      4       4.2763      2.00000
      5       7.2262      0.00000
      6       8.7639      0.00000
      7       8.8040      0.00000
      8      12.4579      0.00000

 k-point    16 :      -0.2500    0.0833    0.0000
  band No.  band energies     occupation 
      1      -5.3230      2.00000
      2       0.9414      2.00000
      3       3.6202      2.00000
      4       4.5701      2.00000
      5       7.4475      0.00000
      6       8.6542      0.00000
      7       8.9146      0.00000
      8      11.4615      0.00000

 k-point    17 :      -0.1667    0.0833    0.0000
  band No.  band energies     occupation 
      1      -5.7845      2.00000
      2       2.3283      2.00000
      3       3.9198      2.00000
      4       4.8827      2.00000
      5       7.7308      0.00000
      6       8.3452      0.00000
      7       8.6632      0.00000
      8      10.5926      0.00000

 k-point    18 :      -0.0833    0.0833    0.0000
  band No.  band energies     occupation 
      1      -6.0945      2.00000
      2       3.6264      2.00000
      3       4.4230      2.00000
      4       5.1073      2.00000
      5       7.9332      0.00000
      6       8.0011      0.00000
      7       8.1302      0.00000
      8       9.5835      0.00000

 k-point    19 :       0.1667    0.1667    0.0000
  band No.  band energies     occupation 
      1      -5.8648      2.00000
      2       3.1309      2.00000
      3       4.1088      2.00000
      4       4.1088      2.00000
      5       6.9513      0.00000
      6       9.2245      0.00000
      7       9.4392      0.00000
      8       9.4392      0.00000

 k-point    20 :       0.2500    0.1667    0.0000
  band No.  band energies     occupation 
      1      -5.5549      2.00000
      2       2.1058      2.00000
      3       3.7616      2.00000
      4       3.7912      2.00000
      5       6.9679      0.00000
      6       8.9406      0.00000
      7       9.8152      0.00000
      8       9.9825      0.00000

 k-point    21 :       0.3333    0.1667    0.0000
  band No.  band energies     occupation 
      1      -5.0939      2.00000
      2       0.8731      2.00000
      3       3.3214      2.00000
      4       3.5814      2.00000
      5       7.1931      0.00000
      6       9.0850      0.00000
      7       9.7035      0.00000
      8      10.1736      0.00000

 k-point    22 :       0.4167    0.1667    0.0000
  band No.  band energies     occupation 
      1      -4.5233      2.00000
      2      -0.2876      2.00000
      3       2.9002      2.00000
      4       3.4985      2.00000
      5       7.2307      0.00000
      6       9.2781      0.00000
      7      10.0342      0.00000
      8      10.2009      0.00000

 k-point    23 :       0.5000    0.1667    0.0000
  band No.  band energies     occupation 
      1      -3.9838      2.00000
      2      -1.1578      2.00000
      3       2.5738      2.00000
      4       3.5461      2.00000
      5       7.2478      0.00000
      6       9.1807      0.00000
      7       9.7909      0.00000
      8      11.4805      0.00000

 k-point    24 :      -0.4167    0.1667    0.0000
  band No.  band energies     occupation 
      1      -3.8804      2.00000
      2      -1.3039      2.00000
      3       2.3759      2.00000
      4       3.7171      2.00000
      5       7.3639      0.00000
      6       9.1569      0.00000
      7       9.5766      0.00000
      8      12.9611      0.00000

 k-point    25 :      -0.3333    0.1667    0.0000
  band No.  band energies     occupation 
      1      -4.3395      2.00000
      2      -0.6002      2.00000
      3       2.3326      2.00000
      4       3.9934      2.00000
      5       7.5866      0.00000
      6       9.2320      0.00000
      7       9.4025      0.00000
      8      12.2249      0.00000

 k-point    26 :      -0.2500    0.1667    0.0000
  band No.  band energies     occupation 
      1      -4.9235      2.00000
      2       0.4740      2.00000
      3       2.4867      2.00000
      4       4.3390      2.00000
      5       7.8677      0.00000
      6       9.1523      0.00000
      7       9.2970      0.00000
      8      11.0949      0.00000

 k-point    27 :      -0.1667    0.1667    0.0000
  band No.  band energies     occupation 
      1      -5.4250      2.00000
      2       1.5552      2.00000
      3       2.9659      2.00000
      4       4.6812      2.00000
      5       8.0693      0.00000
      6       8.7142      0.00000
      7       8.9650      0.00000
      8      10.6416      0.00000

 k-point    28 :       0.2500    0.2500    0.0000
  band No.  band energies     occupation 
      1      -5.2981      2.00000
      2       1.6945      2.00000
      3       3.4484      2.00000
      4       3.4484      2.00000
      5       6.4109      0.00000
      6       8.3489      0.00000
      7      10.7827      0.00000
      8      10.7827      0.00000

 k-point    29 :       0.3333    0.2500    0.0000
  band No.  band energies     occupation 
      1      -4.8850      2.00000
      2       0.8307      2.00000
      3       3.0078      2.00000
      4       3.2136      2.00000
      5       6.4921      0.00000
      6       8.0275      0.00000
      7      11.0261      0.00000
      8      11.2611      0.00000

 k-point    30 :       0.4167    0.2500    0.0000
  band No.  band energies     occupation 
      1      -4.3431      2.00000
      2      -0.1363      2.00000
      3       2.4095      2.00000
      4       3.1099      2.00000
      5       6.7123      0.00000
      6       8.4656      0.00000
      7      10.8683      0.00000
      8      11.2590      0.00000

 k-point    31 :       0.5000    0.2500    0.0000
  band No.  band energies     occupation 
      1      -3.7614      2.00000
      2      -0.9988      2.00000
      3       1.8909      2.00000
      4       3.1443      2.00000
      5       6.7999      0.00000
[...]
      8      12.6015      0.00000

 k-point    37 :       0.5000    0.3333    0.0000
  band No.  band energies     occupation 
      1      -3.4236      2.00000
      2      -1.2118      2.00000
      3       1.8230      2.00000
      4       2.8151      2.00000
      5       6.3764      0.00000
      6       7.9508      0.00000
      7      12.3689      0.00000
      8      12.4580      0.00000

 k-point    38 :      -0.4167    0.3333    0.0000
  band No.  band energies     occupation 
      1      -2.9941      2.00000
      2      -1.6670      2.00000
      3       1.2864      2.00000
      4       2.9593      2.00000
      5       6.5427      0.00000
      6       9.3350      0.00000
      7      12.1163      0.00000
      8      12.2051      0.00000

 k-point    39 :      -0.3333    0.3333    0.0000
  band No.  band energies     occupation 
      1      -3.2536      2.00000
      2      -1.3914      2.00000
      3       1.0979      2.00000
      4       3.2308      2.00000
      5       6.8436      0.00000
      6      10.9519      0.00000
      7      11.4932      0.00000
      8      11.9932      0.00000

 k-point    40 :       0.4167    0.4167    0.0000
  band No.  band energies     occupation 
      1      -3.5444      2.00000
      2      -1.1151      2.00000
      3       2.6374      2.00000
      4       2.6374      2.00000
      5       5.9018      0.00000
      6       6.5086      0.00000
      7      13.7023      0.00000
      8      13.7023      0.00000

 k-point    41 :       0.5000    0.4167    0.0000
  band No.  band energies     occupation 
      1      -2.9654      2.00000
      2      -1.7687      2.00000
      3       2.2422      2.00000
      4       2.6049      2.00000
      5       6.1036      0.00000
      6       6.6462      0.00000
      7      13.9509      0.00000
      8      13.9939      0.00000

 k-point    42 :      -0.4167    0.4167    0.0000
  band No.  band energies     occupation 
      1      -2.5477      2.00000
      2      -2.1458      2.00000
      3       1.6273      2.00000
      4       2.7151      2.00000
      5       6.2572      0.00000
      6       7.7799      0.00000
      7      13.4153      0.00000
      8      13.7987      0.00000

 k-point    43 :       0.5000    0.5000    0.0000
  band No.  band energies     occupation 
      1      -2.3985      2.00000
      2      -2.3985      2.00000
      3       2.5330      2.00000
      4       2.5330      2.00000
      5       6.0491      0.00000
      6       6.0491      0.00000
      7      14.8208      0.00000
      8      14.8208      0.00000

 k-point    44 :       0.2500    0.1667    0.0833
  band No.  band energies     occupation 
      1      -5.7541      2.00000
      2       2.5048      2.00000
      3       3.6981      2.00000
      4       4.5448      2.00000
      5       7.5468      0.00000
      6       8.5203      0.00000
      7       9.2622      0.00000
      8      10.0004      0.00000

 k-point    45 :       0.3333    0.1667    0.0833
  band No.  band energies     occupation 
      1      -5.3415      2.00000
      2       1.3259      2.00000
      3       3.1814      2.00000
      4       4.2870      2.00000
      5       7.7877      0.00000
      6       8.5395      0.00000
      7       9.6667      0.00000
      8      10.0725      0.00000

 k-point    46 :       0.4167    0.1667    0.0833
  band No.  band energies     occupation 
      1      -4.8002      2.00000
      2       0.0991      2.00000
      3       2.9090      2.00000
      4       3.9819      2.00000
      5       7.7662      0.00000
      6       8.5479      0.00000
      7       9.7342      0.00000
      8      10.6789      0.00000

 k-point    47 :       0.5000    0.1667    0.0833
  band No.  band energies     occupation 
      1      -4.2217      2.00000
      2      -0.9223      2.00000
      3       2.7765      2.00000
      4       3.7537      2.00000
      5       7.6752      0.00000
      6       8.4381      0.00000
      7       9.6715      0.00000
      8      11.8217      0.00000

 k-point    48 :      -0.4167    0.1667    0.0833
  band No.  band energies     occupation 
      1      -3.9131      2.00000
      2      -1.3824      2.00000
      3       2.7382      2.00000
      4       3.6694      2.00000
      5       7.6395      0.00000
      6       8.3803      0.00000
      7       9.6325      0.00000
      8      13.0475      0.00000

 k-point    49 :       0.3333    0.2500    0.0833
  band No.  band energies     occupation 
      1      -5.1942      2.00000
      2       1.3299      2.00000
      3       3.0398      2.00000
      4       3.6859      2.00000
      5       7.0319      0.00000
      6       8.6878      0.00000
      7       9.8953      0.00000
      8      10.6718      0.00000

 k-point    50 :       0.4167    0.2500    0.0833
  band No.  band energies     occupation 
      1      -4.6918      2.00000
      2       0.3369      2.00000
      3       2.5225      2.00000
      4       3.4199      2.00000
      5       7.3527      0.00000
      6       8.9146      0.00000
      7       9.6414      0.00000
      8      11.0539      0.00000

 k-point    51 :       0.5000    0.2500    0.0833
  band No.  band energies     occupation 
      1      -4.1063      2.00000
      2      -0.6480      2.00000
      3       2.1710      2.00000
      4       3.2264      2.00000
      5       7.4709      0.00000
      6       9.3281      0.00000
      7       9.9128      0.00000
      8      11.0494      0.00000

 k-point    52 :      -0.4167    0.2500    0.0833
  band No.  band energies     occupation 
      1      -3.6495      2.00000
      2      -1.2997      2.00000
      3       1.9343      2.00000
      4       3.2097      2.00000
      5       7.5851      0.00000
      6       9.0727      0.00000
      7      10.9328      0.00000
      8      11.3402      0.00000

 k-point    53 :      -0.3333    0.2500    0.0833
  band No.  band energies     occupation 
      1      -3.7741      2.00000
      2      -1.1272      2.00000
      3       1.8289      2.00000
      4       3.3696      2.00000
      5       7.8056      0.00000
      6       8.9057      0.00000
      7      10.8407      0.00000
      8      11.7402      0.00000

 k-point    54 :      -0.2500    0.2500    0.0833
  band No.  band energies     occupation 
      1      -4.3215      2.00000
      2      -0.3139      2.00000
      3       1.9144      2.00000
      4       3.6640      2.00000
      5       8.1172      0.00000
      6       8.7792      0.00000
      7      10.3608      0.00000
      8      10.8527      0.00000

 k-point    55 :      -0.1667    0.2500    0.0833
  band No.  band energies     occupation 
      1      -4.8874      2.00000
      2       0.6101      2.00000
      3       2.3187      2.00000
      4       4.0186      2.00000
      5       8.3828      0.00000
      6       8.4309      0.00000
      7       9.8391      0.00000
      8      10.3951      0.00000

 k-point    56 :       0.4167    0.3333    0.0833
  band No.  band energies     occupation 
      1      -4.4272      2.00000
      2       0.1010      2.00000
      3       2.5571      2.00000
      4       2.9585      2.00000
      5       6.6622      0.00000
      6       7.7461      0.00000
      7      11.0625      0.00000
      8      12.1739      0.00000

 k-point    57 :       0.5000    0.3333    0.0833
  band No.  band energies     occupation 
      1      -3.8576      2.00000
      2      -0.6914      2.00000
      3       2.0072      2.00000
      4       2.7579      2.00000
      5       6.9927      0.00000
      6       8.2355      0.00000
      7      10.7815      0.00000
      8      12.5288      0.00000

 k-point    58 :      -0.4167    0.3333    0.0833
  band No.  band energies     occupation 
      1      -3.3107      2.00000
      2      -1.3579      2.00000
      3       1.5194      2.00000
      4       2.7642      2.00000
      5       7.1428      0.00000
      6       9.4799      0.00000
      7      10.4955      0.00000
      8      12.4477      0.00000

 k-point    59 :      -0.3333    0.3333    0.0833
  band No.  band energies     occupation 
      1      -3.2497      2.00000
      2      -1.4195      2.00000
      3       1.2525      2.00000
      4       2.9491      2.00000
      5       7.3804      0.00000
      6      10.1773      0.00000
      7      11.1120      0.00000
      8      11.7110      0.00000

 k-point    60 :      -0.2500    0.3333    0.0833
  band No.  band energies     occupation 
      1      -3.7497      2.00000
      2      -0.8635      2.00000
      3       1.3362      2.00000
      4       3.2714      2.00000
      5       7.7379      0.00000
      6       9.7631      0.00000
      7      10.5734      0.00000
      8      11.8661      0.00000

 k-point    61 :       0.5000    0.4167    0.0833
  band No.  band energies     occupation 
      1      -3.4737      2.00000
      2      -1.1528      2.00000
      3       2.2892      2.00000
      4       2.4769      2.00000
      5       6.5114      0.00000
      6       7.0296      0.00000
      7      12.3918      0.00000
      8      13.6899      0.00000

 k-point    62 :      -0.4167    0.4167    0.0833
  band No.  band energies     occupation 
      1      -2.8848      2.00000
      2      -1.7639      2.00000
      3       1.7136      2.00000
      4       2.4347      2.00000
      5       6.8005      0.00000
      6       7.8745      0.00000
      7      12.0946      0.00000
      8      13.4687      0.00000

 k-point    63 :      -0.3333    0.4167    0.0833
  band No.  band energies     occupation 
      1      -2.7523      2.00000
      2      -1.8624      2.00000
      3       1.2542      2.00000
      4       2.6194      2.00000
      5       7.0232      0.00000
      6       9.3432      0.00000
      7      11.6542      0.00000
      8      12.0334      0.00000

 k-point    64 :      -0.4167    0.5000    0.0833
  band No.  band energies     occupation 
      1      -2.3660      2.00000
      2      -2.3660      2.00000
      3       2.2572      2.00000
      4       2.2572      2.00000
      5       6.6234      0.00000
      6       6.6234      0.00000
      7      13.7839      0.00000
      8      13.7839      0.00000

 k-point    65 :       0.5000    0.3333    0.1667
  band No.  band energies     occupation 
      1      -4.1605      2.00000
      2      -0.3249      2.00000
      3       1.8766      2.00000
      4       3.0722      2.00000
      5       8.0494      0.00000
      6       8.9315      0.00000
      7       9.3010      0.00000
      8      12.0447      0.00000

 k-point    66 :      -0.4167    0.3333    0.1667
  band No.  band energies     occupation 
      1      -3.5774      2.00000
      2      -1.0511      2.00000
      3       1.5458      2.00000
      4       2.7613      2.00000
      5       8.4238      0.00000
      6       8.9242      0.00000
      7       9.8498      0.00000
      8      12.4589      0.00000

 k-point    67 :      -0.3333    0.3333    0.1667
  band No.  band energies     occupation 
      1      -3.2457      2.00000
      2      -1.4466      2.00000
      3       1.4534      2.00000
      4       2.6419      2.00000
      5       8.6047      0.00000
      6       8.6570      0.00000
      7      11.1911      0.00000
      8      11.5025      0.00000

 k-point    68 :      -0.4167    0.4167    0.1667
  band No.  band energies     occupation 
      1      -3.2785      2.00000
      2      -1.2924      2.00000
      3       1.6941      2.00000
      4       2.2811      2.00000
      5       7.8980      0.00000
      6       8.3135      0.00000
      7      10.4271      0.00000
      8      13.2146      0.00000

 k-point    69 :      -0.3333    0.4167    0.1667
  band No.  band energies     occupation 
      1      -2.7925      2.00000
      2      -1.7715      2.00000
      3       1.4062      2.00000
      4       2.1365      2.00000
      5       8.2364      0.00000
      6       9.4804      0.00000
      7      10.1445      0.00000
      8      11.5082      0.00000

 k-point    70 :      -0.2500    0.4167    0.1667
  band No.  band energies     occupation 
      1      -3.0119      2.00000
      2      -1.5503      2.00000
      3       1.2894      2.00000
      4       2.3457      2.00000
      5       8.5266      0.00000
      6       9.6270      0.00000
      7      10.0748      0.00000
      8      11.2662      0.00000

 k-point    71 :      -0.3333    0.5000    0.1667
  band No.  band energies     occupation 
      1      -2.2971      2.00000
      2      -2.2971      2.00000
      3       1.8160      2.00000
      4       1.8160      2.00000
      5       7.9755      0.00000
      6       7.9755      0.00000
      7      11.7615      0.00000
      8      11.7615      0.00000

 k-point    72 :      -0.2500    0.5000    0.2500
  band No.  band energies     occupation 
      1      -2.2604      2.00000
      2      -2.2604      2.00000
      3       1.6272      2.00000
      4       1.6272      2.00000
      5       9.4965      0.00000
      6       9.4965      0.00000
      7      10.0106      0.00000
      8      10.0106      0.00000


--------------------------------------------------------------------------------------------------------


 soft charge-density along one line, spin component           1
         0         1         2         3         4         5         6         7         8         9
 total charge-density along one line
 
 pseudopotential strength for first ion, spin component:           1
 18.482  -0.000   0.000   0.000   0.000  -0.000  -0.000  -0.000
 -0.000   0.006  -0.000  -0.000  -0.000   0.000   0.000   0.000
  0.000  -0.000   4.185  -0.000  -0.000  -0.004   0.000   0.000
  0.000  -0.000  -0.000   4.185  -0.000   0.000  -0.004   0.000
  0.000  -0.000  -0.000  -0.000   4.185   0.000   0.000  -0.004
 -0.000   0.000  -0.004   0.000   0.000   0.005  -0.000  -0.000
 -0.000   0.000   0.000  -0.004   0.000  -0.000   0.005  -0.000
 -0.000   0.000   0.000   0.000  -0.004  -0.000  -0.000   0.005
 total augmentation occupancy for first ion, spin component:           1
  1.504  -0.700  -0.000   0.000   0.000   0.000   0.000   0.000
 -0.700   0.673  -0.000  -0.000  -0.000  -0.000  -0.000   0.000
 -0.000  -0.000   0.990  -0.000   0.000  -0.516   0.000   0.000
  0.000  -0.000   0.000   0.990   0.000   0.000  -0.516   0.000
  0.000  -0.000  -0.000   0.000   0.990   0.000   0.000  -0.516
 -0.000  -0.000  -0.516   0.000   0.000   0.319  -0.000   0.000
 -0.000   0.000   0.000  -0.516   0.000   0.000   0.319   0.000
  0.000   0.000   0.000   0.000  -0.516   0.000   0.000   0.319


------------------------ aborting loop because EDIFF is reached ----------------------------------------


    CHARGE:  cpu time    0.02: real time    0.02
    FORLOC:  cpu time    0.00: real time    0.00
    FORNL :  cpu time    0.03: real time    0.04
    STRESS:  cpu time    0.28: real time    0.29
    FORCOR:  cpu time    0.01: real time    0.01
    FORHAR:  cpu time    0.00: real time    0.00
    MIXING:  cpu time    0.00: real time    0.00
    OFIELD:  cpu time    0.00: real time    0.00

  FORCE on cell =-STRESS in cart. coord.  units (eV):
  Direction    XX          YY          ZZ          XY          YZ          ZX
  --------------------------------------------------------------------------------------
  Alpha Z     3.16331     3.16331     3.16331
  Ewald     -74.64059   -74.64059   -74.64059    -0.00000    -0.00000    -0.00000
  Hartree     5.21903     5.21903     5.21903     0.00000     0.00000     0.00000
  E(xc)     -25.01975   -25.01975   -25.01975    -0.00000    -0.00000    -0.00000
  Local     -30.07800   -30.07800   -30.07800     0.00001     0.00001     0.00001
  n-local    77.72387    79.15429    73.45116     2.10910    -1.22558     0.49079
  augment   -11.64816   -11.64816   -11.64816    -0.00001    -0.00001    -0.00001
  Kinetic    57.52503    55.22174    53.32551     3.57487    -0.74296     1.03512
  Fock        0.00000     0.00000     0.00000     0.00000     0.00000     0.00000
  -------------------------------------------------------------------------------------
  Total      -0.87030    -0.87030    -0.87030    -0.00000    -0.00000    -0.00000
  in kB     -32.75733   -32.75733   -32.75733    -0.00000    -0.00000    -0.00000
  external pressure =      -32.76 kB  Pullay stress =        0.00 kB


 VOLUME and BASIS-vectors are now :
 -----------------------------------------------------------------------------
  energy-cutoff  :      600.00
  volume of cell :       42.57
      direct lattice vectors                 reciprocal lattice vectors
     0.000000000  2.771281292  2.771281292    -0.180421959  0.180421959  0.180421959
     2.771281292  0.000000000  2.771281292     0.180421959 -0.180421959  0.180421959
     2.771281292  2.771281292  0.000000000     0.180421959  0.180421959 -0.180421959

  length of vectors
     3.919183588  3.919183588  3.919183588     0.312500000  0.312500000  0.312500000


 FORCES acting on ions
    electron-ion (+dipol)            ewald-force                    non-local-force                 convergence-correction
 -----------------------------------------------------------------------------------------------
   0.280E-06 0.280E-06 0.250E-06   0.274E-14 0.853E-14 0.450E-14   -.208E-16 0.486E-16 0.867E-16   0.226E-12 0.224E-12 0.228E-12
   -.280E-06 -.280E-06 -.250E-06   -.269E-14 -.849E-14 -.424E-14   0.208E-16 -.625E-16 -.833E-16   -.225E-12 -.225E-12 -.227E-12
 -----------------------------------------------------------------------------------------------
   -.463E-13 -.149E-13 0.437E-13   0.480E-16 0.375E-16 0.260E-15   0.000E+00 -.139E-16 0.347E-17   0.549E-15 -.493E-15 0.111E-14
 
 
 POSITION                                       TOTAL-FORCE (eV/Angst)
 -----------------------------------------------------------------------------------
      0.00000      0.00000      0.00000         0.000000      0.000000      0.000000
      1.38564      1.38564      1.38564        -0.000000     -0.000000     -0.000000
 -----------------------------------------------------------------------------------
    total drift:                               -0.000000     -0.000000      0.000000


--------------------------------------------------------------------------------------------------------



  FREE ENERGIE OF THE ION-ELECTRON SYSTEM (eV)
  ---------------------------------------------------
  free  energy   TOTEN  =       -10.83209379 eV

  energy  without entropy=      -10.83209378  energy(sigma->0) =      -10.83209378
 


--------------------------------------------------------------------------------------------------------


    POTLOK:  cpu time    0.02: real time    0.03


--------------------------------------------------------------------------------------------------------


 writing wavefunctions
     LOOP+:  cpu time    6.32: real time    6.91
    4ORBIT:  cpu time    0.00: real time    0.00

 total amount of memory used by VASP on root node    42965. kBytes
========================================================================

   base      :      30000. kBytes
   nonl-proj :       6663. kBytes
   fftplans  :       1025. kBytes
   grid      :       1926. kBytes
   one-center:          6. kBytes
   wavefun   :       3345. kBytes
 
  
  
 General timing and accounting informations for this job:
 ========================================================
  
                  Total CPU time used (sec):        6.644
                            User time (sec):        6.388
                          System time (sec):        0.256
                         Elapsed time (sec):        7.317
  
                   Maximum memory used (kb):       48044.
                   Average memory used (kb):           0.
  
                          Minor page faults:         7109
                          Major page faults:            6
                 Voluntary context switches:          559
