 vasp.5.3.5 31Mar14 (build Jun 01 2017 17:55:53) complex                        
  
 executed on             LinuxIFC date 2020.11.10  15:17:03
 running on    4 total cores
 distrk:  each k-point on    4 cores,    1 groups
 distr:  one band on NCORES_PER_BAND=   1 cores,    4 groups


--------------------------------------------------------------------------------------------------------


 INCAR:
 POTCAR:   PAW_PBE Si 05Jan2001                   
 POTCAR:   PAW_PBE Si 05Jan2001                   
   VRHFIN =Si: s2p2                                                             
   LEXCH  = PE                                                                  
   EATOM  =   103.0669 eV,    7.5752 Ry                                         
                                                                                
   TITEL  = PAW_PBE Si 05Jan2001                                                
   LULTRA =        F    use ultrasoft PP ?                                      
   IUNSCR =        1    unscreen: 0-lin 1-nonlin 2-no                           
   RPACOR =    1.500    partial core radius                                     
   POMASS =   28.085; ZVAL   =    4.000    mass and valenz                      
   RCORE  =    1.900    outmost cutoff radius                                   
   RWIGS  =    2.480; RWIGS  =    1.312    wigner-seitz radius (au A)           
   ENMAX  =  245.345; ENMIN  =  184.009 eV                                      
   ICORE  =        2    local potential                                         
   LCOR   =        T    correct aug charges                                     
   LPAW   =        T    paw PP                                                  
   EAUG   =  322.069                                                            
   DEXC   =    -.007                                                            
   RMAX   =    2.944    core radius for proj-oper                               
   RAUG   =    1.300    factor for augmentation sphere                          
   RDEP   =    1.993    radius for radial grids                                 
   QCUT   =   -4.246; QGAM   =    8.493    optimization parameters              
                                                                                
   Description                                                                  
     l     E      TYP  RCUT    TYP  RCUT                                        
     0   .000     23  1.900                                                     
     0   .000     23  1.900                                                     
     1   .000     23  1.900                                                     
     1   .000     23  1.900                                                     
     2   .000      7  1.900                                                     
  local pseudopotential read in
  partial core-charges read in
  atomic valenz-charges read in
  non local Contribution for L=           0  read in
    real space projection operators read in
  non local Contribution for L=           0  read in
    real space projection operators read in
  non local Contribution for L=           1  read in
    real space projection operators read in
  non local Contribution for L=           1  read in
    real space projection operators read in
    PAW grid and wavefunctions read in
 
   number of l-projection  operators is LMAX  =           4
   number of lm-projection operators is LMMAX =           8
 
 PAW_PBE Si 05Jan2001                   :
 energy of atom  1       EATOM= -103.0669
 kinetic energy error for atom=    0.0003 (will be added to EATOM!!)
 
 
 POSCAR: Si
  positions in direct lattice
  velocities in cartesian coordinates
  No initial velocities read in
 exchange correlation table for  LEXCH =        8
   RHO(1)=    0.500       N(1)  =     2000
   RHO(2)=  100.500       N(2)  =     4000
 


--------------------------------------------------------------------------------------------------------


 ion  position               nearest neighbor table
   1  0.000  0.000  0.000-   2 2.10   2 2.10   2 2.10   2 2.10
   2  0.250  0.250  0.250-   1 2.10   1 2.10   1 2.10   1 2.10
 
  LATTYP: Found a face centered cubic cell.
 ALAT       =     4.8497422612
  
  Lattice vectors:
  
 A1 = (   0.0000000000,   2.4248711306,   2.4248711306)
 A2 = (   2.4248711306,   0.0000000000,   2.4248711306)
 A3 = (   2.4248711306,   2.4248711306,   0.0000000000)


Analysis of symmetry for initial positions (statically):
=====================================================================
 Subroutine PRICEL returns:
 Original cell was already a primitive cell.
 

 Routine SETGRP: Setting up the symmetry group for a 
 face centered cubic supercell.


 Subroutine GETGRP returns: Found 48 space group operations
 (whereof 24 operations were pure point group operations)
 out of a pool of 48 trial point group operations.


The static configuration has the point symmetry T_d .
 The point group associated with its full space group is O_h .


Analysis of symmetry for dynamics (positions and initial velocities):
=====================================================================
 Subroutine PRICEL returns:
 Original cell was already a primitive cell.
 

 Routine SETGRP: Setting up the symmetry group for a 
 face centered cubic supercell.


 Subroutine GETGRP returns: Found 48 space group operations
 (whereof 24 operations were pure point group operations)
 out of a pool of 48 trial point group operations.


The dynamic configuration has the point symmetry T_d .
 The point group associated with its full space group is O_h .


Analysis of constrained symmetry for selective dynamics:
=====================================================================
 Subroutine PRICEL returns:
 Original cell was already a primitive cell.
 

 Routine SETGRP: Setting up the symmetry group for a 
 face centered cubic supercell.


 Subroutine GETGRP returns: Found 48 space group operations
 (whereof 24 operations were pure point group operations)
 out of a pool of 48 trial point group operations.


The constrained configuration has the point symmetry T_d .
 The point group associated with its full space group is O_h .
 
 
 KPOINTS: Gamma centered Monkhorst-Pack           

Automatic generation of k-mesh.
Space group operators:
 irot       det(A)        alpha          n_x          n_y          n_z        tau_x        tau_y        tau_z
    1     1.000000     0.000000     1.000000     0.000000     0.000000     0.000000     0.000000     0.000000
    2     1.000000   120.000000    -0.577350    -0.577350    -0.577350     0.000000     0.000000     0.000000
    3     1.000000   120.000000     0.577350     0.577350     0.577350     0.000000     0.000000     0.000000
    4    -1.000000    90.000000     0.000000     0.000000    -1.000000     0.000000     0.000000     0.000000
    5    -1.000000   180.000000     0.000000     0.707107     0.707107     0.000000     0.000000     0.000000
    6    -1.000000    90.000000     0.000000     1.000000     0.000000     0.000000     0.000000     0.000000
    7     1.000000   180.000000     0.000000     0.000000     1.000000     0.000000     0.000000     0.000000
    8     1.000000   120.000000    -0.577350     0.577350     0.577350     0.000000     0.000000     0.000000
    9     1.000000   120.000000    -0.577350     0.577350    -0.577350     0.000000     0.000000     0.000000
   10    -1.000000    90.000000     0.000000     0.000000     1.000000     0.000000     0.000000     0.000000
   11    -1.000000    90.000000    -1.000000     0.000000     0.000000     0.000000     0.000000     0.000000
   12    -1.000000   180.000000     0.707107     0.000000     0.707107     0.000000     0.000000     0.000000
   13     1.000000   120.000000     0.577350    -0.577350     0.577350     0.000000     0.000000     0.000000
   14     1.000000   120.000000    -0.577350    -0.577350     0.577350     0.000000     0.000000     0.000000
   15     1.000000   180.000000     1.000000     0.000000     0.000000     0.000000     0.000000     0.000000
   16    -1.000000    90.000000     0.000000    -1.000000     0.000000     0.000000     0.000000     0.000000
   17    -1.000000   180.000000     0.707107     0.707107     0.000000     0.000000     0.000000     0.000000
   18    -1.000000    90.000000     1.000000     0.000000     0.000000     0.000000     0.000000     0.000000
   19     1.000000   120.000000     0.577350    -0.577350    -0.577350     0.000000     0.000000     0.000000
   20     1.000000   180.000000     0.000000     1.000000     0.000000     0.000000     0.000000     0.000000
   21     1.000000   120.000000     0.577350     0.577350    -0.577350     0.000000     0.000000     0.000000
   22    -1.000000   180.000000     0.000000    -0.707107     0.707107     0.000000     0.000000     0.000000
   23    -1.000000   180.000000     0.707107    -0.707107     0.000000     0.000000     0.000000     0.000000
   24    -1.000000   180.000000     0.707107     0.000000    -0.707107     0.000000     0.000000     0.000000
   25    -1.000000     0.000000     1.000000     0.000000     0.000000     0.250000     0.250000     0.250000
   26    -1.000000   120.000000    -0.577350    -0.577350    -0.577350     0.250000     0.250000     0.250000
   27    -1.000000   120.000000     0.577350     0.577350     0.577350     0.250000     0.250000     0.250000
   28     1.000000    90.000000     0.000000     0.000000    -1.000000     0.250000     0.250000     0.250000
   29     1.000000   180.000000     0.000000     0.707107     0.707107     0.250000     0.250000     0.250000
   30     1.000000    90.000000     0.000000     1.000000     0.000000     0.250000     0.250000     0.250000
   31    -1.000000   180.000000     0.000000     0.000000     1.000000     0.250000     0.250000     0.250000
   32    -1.000000   120.000000    -0.577350     0.577350     0.577350     0.250000     0.250000     0.250000
   33    -1.000000   120.000000    -0.577350     0.577350    -0.577350     0.250000     0.250000     0.250000
   34     1.000000    90.000000     0.000000     0.000000     1.000000     0.250000     0.250000     0.250000
   35     1.000000    90.000000    -1.000000     0.000000     0.000000     0.250000     0.250000     0.250000
   36     1.000000   180.000000     0.707107     0.000000     0.707107     0.250000     0.250000     0.250000
   37    -1.000000   120.000000     0.577350    -0.577350     0.577350     0.250000     0.250000     0.250000
   38    -1.000000   120.000000    -0.577350    -0.577350     0.577350     0.250000     0.250000     0.250000
   39    -1.000000   180.000000     1.000000     0.000000     0.000000     0.250000     0.250000     0.250000
   40     1.000000    90.000000     0.000000    -1.000000     0.000000     0.250000     0.250000     0.250000
   41     1.000000   180.000000     0.707107     0.707107     0.000000     0.250000     0.250000     0.250000
   42     1.000000    90.000000     1.000000     0.000000     0.000000     0.250000     0.250000     0.250000
   43    -1.000000   120.000000     0.577350    -0.577350    -0.577350     0.250000     0.250000     0.250000
   44    -1.000000   180.000000     0.000000     1.000000     0.000000     0.250000     0.250000     0.250000
   45    -1.000000   120.000000     0.577350     0.577350    -0.577350     0.250000     0.250000     0.250000
   46     1.000000   180.000000     0.000000    -0.707107     0.707107     0.250000     0.250000     0.250000
   47     1.000000   180.000000     0.707107    -0.707107     0.000000     0.250000     0.250000     0.250000
   48     1.000000   180.000000     0.707107     0.000000    -0.707107     0.250000     0.250000     0.250000
 
 Subroutine IBZKPT returns following result:
 ===========================================
 
 Found     72 irreducible k-points:
 
 Following reciprocal coordinates:
            Coordinates               Weight
  0.000000  0.000000  0.000000      1.000000
  0.083333  0.000000  0.000000      8.000000
  0.166667  0.000000  0.000000      8.000000
  0.250000  0.000000  0.000000      8.000000
  0.333333  0.000000  0.000000      8.000000
  0.416667  0.000000  0.000000      8.000000
  0.500000  0.000000  0.000000      4.000000
  0.083333  0.083333  0.000000      6.000000
  0.166667  0.083333  0.000000     24.000000
  0.250000  0.083333  0.000000     24.000000
  0.333333  0.083333  0.000000     24.000000
  0.416667  0.083333  0.000000     24.000000
  0.500000  0.083333  0.000000     24.000000
 -0.416667  0.083333  0.000000     24.000000
 -0.333333  0.083333  0.000000     24.000000
 -0.250000  0.083333  0.000000     24.000000
 -0.166667  0.083333  0.000000     24.000000
 -0.083333  0.083333  0.000000     12.000000
  0.166667  0.166667  0.000000      6.000000
  0.250000  0.166667  0.000000     24.000000
  0.333333  0.166667  0.000000     24.000000
  0.416667  0.166667  0.000000     24.000000
  0.500000  0.166667  0.000000     24.000000
 -0.416667  0.166667  0.000000     24.000000
 -0.333333  0.166667  0.000000     24.000000
 -0.250000  0.166667  0.000000     24.000000
 -0.166667  0.166667  0.000000     12.000000
  0.250000  0.250000  0.000000      6.000000
  0.333333  0.250000  0.000000     24.000000
  0.416667  0.250000  0.000000     24.000000
  0.500000  0.250000  0.000000     24.000000
 -0.416667  0.250000  0.000000     24.000000
 -0.333333  0.250000  0.000000     24.000000
 -0.250000  0.250000  0.000000     12.000000
  0.333333  0.333333  0.000000      6.000000
  0.416667  0.333333  0.000000     24.000000
  0.500000  0.333333  0.000000     24.000000
 -0.416667  0.333333  0.000000     24.000000
 -0.333333  0.333333  0.000000     12.000000
  0.416667  0.416667  0.000000      6.000000
  0.500000  0.416667  0.000000     24.000000
 -0.416667  0.416667  0.000000     12.000000
  0.500000  0.500000  0.000000      3.000000
  0.250000  0.166667  0.083333     24.000000
  0.333333  0.166667  0.083333     48.000000
  0.416667  0.166667  0.083333     48.000000
  0.500000  0.166667  0.083333     48.000000
 -0.416667  0.166667  0.083333     24.000000
  0.333333  0.250000  0.083333     24.000000
  0.416667  0.250000  0.083333     48.000000
  0.500000  0.250000  0.083333     48.000000
 -0.416667  0.250000  0.083333     48.000000
 -0.333333  0.250000  0.083333     48.000000
 -0.250000  0.250000  0.083333     48.000000
 -0.166667  0.250000  0.083333     24.000000
  0.416667  0.333333  0.083333     24.000000
  0.500000  0.333333  0.083333     48.000000
 -0.416667  0.333333  0.083333     48.000000
 -0.333333  0.333333  0.083333     48.000000
 -0.250000  0.333333  0.083333     24.000000
  0.500000  0.416667  0.083333     24.000000
 -0.416667  0.416667  0.083333     48.000000
 -0.333333  0.416667  0.083333     24.000000
 -0.416667  0.500000  0.083333     12.000000
  0.500000  0.333333  0.166667     24.000000
 -0.416667  0.333333  0.166667     48.000000
 -0.333333  0.333333  0.166667     24.000000
 -0.416667  0.416667  0.166667     24.000000
 -0.333333  0.416667  0.166667     48.000000
 -0.250000  0.416667  0.166667     24.000000
 -0.333333  0.500000  0.166667     12.000000
 -0.250000  0.500000  0.250000      6.000000
 
 Following cartesian coordinates:
            Coordinates               Weight
  0.000000  0.000000  0.000000      1.000000
 -0.083333  0.083333  0.083333      8.000000
 -0.166667  0.166667  0.166667      8.000000
 -0.250000  0.250000  0.250000      8.000000
 -0.333333  0.333333  0.333333      8.000000
 -0.416667  0.416667  0.416667      8.000000
 -0.500000  0.500000  0.500000      4.000000
  0.000000  0.000000  0.166667      6.000000
 -0.083333  0.083333  0.250000     24.000000
 -0.166667  0.166667  0.333333     24.000000
 -0.250000  0.250000  0.416667     24.000000
 -0.333333  0.333333  0.500000     24.000000
 -0.416667  0.416667  0.583333     24.000000
  0.500000 -0.500000 -0.333333     24.000000
  0.416667 -0.416667 -0.250000     24.000000
  0.333333 -0.333333 -0.166667     24.000000
  0.250000 -0.250000 -0.083333     24.000000
  0.166667 -0.166667  0.000000     12.000000
  0.000000  0.000000  0.333333      6.000000
 -0.083333  0.083333  0.416667     24.000000
 -0.166667  0.166667  0.500000     24.000000
 -0.250000  0.250000  0.583333     24.000000
 -0.333333  0.333333  0.666667     24.000000
  0.583333 -0.583333 -0.250000     24.000000
  0.500000 -0.500000 -0.166667     24.000000
  0.416667 -0.416667 -0.083333     24.000000
  0.333333 -0.333333  0.000000     12.000000
  0.000000  0.000000  0.500000      6.000000
 -0.083333  0.083333  0.583333     24.000000
 -0.166667  0.166667  0.666667     24.000000
 -0.250000  0.250000  0.750000     24.000000
  0.666667 -0.666667 -0.166667     24.000000
  0.583333 -0.583333 -0.083333     24.000000
  0.500000 -0.500000  0.000000     12.000000
  0.000000  0.000000  0.666667      6.000000
 -0.083333  0.083333  0.750000     24.000000
 -0.166667  0.166667  0.833333     24.000000
  0.750000 -0.750000 -0.083333     24.000000
  0.666667 -0.666667  0.000000     12.000000
  0.000000  0.000000  0.833333      6.000000
 -0.083333  0.083333  0.916667     24.000000
  0.833333 -0.833333  0.000000     12.000000
  0.000000  0.000000  1.000000      3.000000
  0.000000  0.166667  0.333333     24.000000
 -0.083333  0.250000  0.416667     48.000000
 -0.166667  0.333333  0.500000     48.000000
 -0.250000  0.416667  0.583333     48.000000
  0.666667 -0.500000 -0.333333     24.000000
 -0.000000  0.166667  0.500000     24.000000
 -0.083333  0.250000  0.583333     48.000000
 -0.166667  0.333333  0.666667     48.000000
  0.750000 -0.583333 -0.250000     48.000000
  0.666667 -0.500000 -0.166667     48.000000
  0.583333 -0.416667 -0.083333     48.000000
  0.500000 -0.333333  0.000000     24.000000
 -0.000000  0.166667  0.666667     24.000000
 -0.083333  0.250000  0.750000     48.000000
  0.833333 -0.666667 -0.166667     48.000000
  0.750000 -0.583333 -0.083333     48.000000
  0.666667 -0.500000  0.000000     24.000000
  0.000000  0.166667  0.833333     24.000000
  0.916667 -0.750000 -0.083333     48.000000
  0.833333 -0.666667  0.000000     24.000000
  1.000000 -0.833333  0.000000     12.000000
  0.000000  0.333333  0.666667     24.000000
  0.916667 -0.583333 -0.250000     48.000000
  0.833333 -0.500000 -0.166667     24.000000
  1.000000 -0.666667 -0.166667     24.000000
  0.916667 -0.583333 -0.083333     48.000000
  0.833333 -0.500000  0.000000     24.000000
  1.000000 -0.666667  0.000000     12.000000
  1.000000 -0.500000  0.000000      6.000000
 


--------------------------------------------------------------------------------------------------------




 Dimension of arrays:
   k-points           NKPTS =     72   k-points in BZ     NKDIM =     72   number of bands    NBANDS=      8
   number of dos      NEDOS =    301   number of ions     NIONS =      2
   non local maximal  LDIM  =      4   non local SUM 2l+1 LMDIM =      8
   total plane-waves  NPLWV =  13824
   max r-space proj   IRMAX =      1   max aug-charges    IRDMAX=  16406
   dimension x,y,z NGX =    24 NGY =   24 NGZ =   24
   dimension x,y,z NGXF=    48 NGYF=   48 NGZF=   48
   support grid    NGXF=    48 NGYF=   48 NGZF=   48
   ions per type =               2
 NGX,Y,Z   is equivalent  to a cutoff of  11.63, 11.63, 11.63 a.u.
 NGXF,Y,Z  is equivalent  to a cutoff of  23.27, 23.27, 23.27 a.u.


 I would recommend the setting:
   dimension x,y,z NGX =    21 NGY =   21 NGZ =   21
 SYSTEM =  Si
 POSCAR =  Si

 Startparameter for this run:
   NWRITE =      2    write-flag & timer
   PREC   = normal    normal or accurate (medium, high low for compatibility)
   ISTART =      0    job   : 0-new  1-cont  2-samecut
   ICHARG =      2    charge: 1-file 2-atom 10-const
   ISPIN  =      1    spin polarized calculation?
   LNONCOLLINEAR =      F non collinear calculations
   LSORBIT =      F    spin-orbit coupling
   INIWAV =      1    electr: 0-lowe 1-rand  2-diag
   LASPH  =      F    aspherical Exc in radial PAW
   METAGGA=      F    non-selfconsistent MetaGGA calc.

 Electronic Relaxation 1
   ENCUT  =  600.0 eV  44.10 Ry    6.64 a.u.   6.85  6.85  6.85*2*pi/ulx,y,z
   ENINI  =  600.0     initial cutoff
   ENAUG  = 1200.0 eV  augmentation charge cutoff
   NELM   =    500;   NELMIN=  2; NELMDL= -5     # of ELM steps 
   EDIFF  = 0.1E-09   stopping-criterion for ELM
   LREAL  =      F    real-space projection
   NLSPLINE    = F    spline interpolate recip. space projectors
   LCOMPAT=      F    compatible to vasp.4.4
   GGA_COMPAT  = T    GGA compatible to vasp.4.4-vasp.4.6
   LMAXPAW     = -100 max onsite density
   LMAXMIX     =    2 max onsite mixed and CHGCAR
   VOSKOWN=      0    Vosko Wilk Nusair interpolation
   ROPT   =    0.00000
 Ionic relaxation
   EDIFFG = 0.1E-08   stopping-criterion for IOM
   NSW    =      0    number of steps for IOM
   NBLOCK =      1;   KBLOCK =      1    inner block; outer block 
   IBRION =     -1    ionic relax: 0-MD 1-quasi-New 2-CG
   NFREE  =      0    steps in history (QN), initial steepest desc. (CG)
   ISIF   =      2    stress and relaxation
   IWAVPR =     10    prediction:  0-non 1-charg 2-wave 3-comb
   ISYM   =      2    0-nonsym 1-usesym 2-fastsym
   LCORR  =      T    Harris-Foulkes like correction to forces

   POTIM  = 0.5000    time-step for ionic-motion
   TEIN   =    0.0    initial temperature
   TEBEG  =    0.0;   TEEND  =   0.0 temperature during run
   SMASS  =  -3.00    Nose mass-parameter (am)
   estimated Nose-frequenzy (Omega)   =  0.10E-29 period in steps =****** mass=  -0.269E-27a.u.
   SCALEE = 1.0000    scale energy and forces
   NPACO  =    256;   APACO  = 16.0  distance and # of slots for P.C.
   PSTRESS=    0.0 pullay stress

  Mass of Ions in am
   POMASS =  28.09
  Ionic Valenz
   ZVAL   =   4.00
  Atomic Wigner-Seitz radii
   RWIGS  =  -1.00
  virtual crystal weights 
   VCA    =   1.00
   NELECT =       8.0000    total number of electrons
   NUPDOWN=      -1.0000    fix difference up-down

 DOS related values:
   EMIN   =  10.00;   EMAX   =-10.00  energy-range for DOS
   EFERMI =   0.00
   ISMEAR =    -1;   SIGMA  =   0.03  broadening in eV -4-tet -1-fermi 0-gaus

 Electronic relaxation 2 (details)
   IALGO  =     38    algorithm
   LDIAG  =      T    sub-space diagonalisation (order eigenvalues)
   LSUBROT=      F    optimize rotation matrix (better conditioning)
   TURBO    =      0    0=normal 1=particle mesh
   IRESTART =      0    0=no restart 2=restart with 2 vectors
   NREBOOT  =      0    no. of reboots
   NMIN     =      0    reboot dimension
   EREF     =   0.00    reference energy to select bands
   IMIX   =      4    mixing-type and parameters
     AMIX     =   0.40;   BMIX     =  1.00
     AMIX_MAG =   1.60;   BMIX_MAG =  1.00
     AMIN     =   0.10
     WC   =   100.;   INIMIX=   1;  MIXPRE=   1;  MAXMIX= -45

 Intra band minimization:
   WEIMIN = 0.0000     energy-eigenvalue tresh-hold
   EBREAK =  0.31E-11  absolut break condition
   DEPER  =   0.30     relativ break condition  

   TIME   =   0.40     timestep for ELM

  volume/ion in A,a.u.               =      14.26        96.22
  Fermi-wavevector in a.u.,A,eV,Ry     =   1.071699  2.025217 15.626819  1.148539
  Thomas-Fermi vector in A             =   2.207447
 
 Write flags
   LWAVE  =      T    write WAVECAR
   LCHARG =      T    write CHGCAR
   LVTOT  =      F    write LOCPOT, total local potential
   LVHAR  =      F    write LOCPOT, Hartree potential only
   LELF   =      F    write electronic localiz. function (ELF)
   LORBIT =      0    0 simple, 1 ext, 2 COOP (PROOUT)


 Dipole corrections
   LMONO  =      F    monopole corrections only (constant potential shift)
   LDIPOL =      F    correct potential (dipole corrections)
   IDIPOL =      0    1-x, 2-y, 3-z, 4-all directions 
   EPSILON=  1.0000000 bulk dielectric constant

 Exchange correlation treatment:
   GGA     =    PE    GGA type
   LEXCH   =     8    internal setting for exchange type
   VOSKOWN=      0    Vosko Wilk Nusair interpolation
   LHFCALC =     F    Hartree Fock is set to
   LHFONE  =     F    Hartree Fock one center treatment
   AEXX    =    0.0000 exact exchange contribution

 Linear response parameters
   LEPSILON=     F    determine dielectric tensor
   LRPA    =     F    only Hartree local field effects (RPA)
   LNABLA  =     F    use nabla operator in PAW spheres
   LVEL    =     F    velocity operator in full k-point grid
   LINTERFAST=   F  fast interpolation
   KINTER  =     0    interpolate to denser k-point grid
   CSHIFT  =0.1000    complex shift for real part using Kramers Kronig
   OMEGAMAX=  -1.0    maximum frequency
   DEG_THRESHOLD= 0.2000000E-02 threshold for treating states as degnerate
   RTIME   =    0.100 relaxation time in fs

 Orbital magnetization related:
   ORBITALMAG=     F  switch on orbital magnetization
   LCHIMAG   =     F  perturbation theory with respect to B field
   DQ        =  0.001000  dq finite difference perturbation B field



--------------------------------------------------------------------------------------------------------


 Static calculation
 charge density and potential will be updated during run
 non-spin polarized calculation
 Variant of blocked Davidson
 Davidson routine will perform the subspace rotation
 perform sub-space diagonalisation
    after iterative eigenvector-optimisation
 modified Broyden-mixing scheme, WC =      100.0
 initial mixing is a Kerker type mixing with AMIX =  0.4000 and BMIX =      1.0000
 Hartree-type preconditioning will be used
 using additional bands            4
 reciprocal scheme for non local part
 use partial core corrections
 calculate Harris-corrections to forces 
   (improved forces if not selfconsistent)
 use gradient corrections 
 use of overlap-Matrix (Vanderbilt PP)
 Fermi-smearing in eV        SIGMA  =   0.03


--------------------------------------------------------------------------------------------------------


  energy-cutoff  :      600.00
  volume of cell :       28.52
      direct lattice vectors                 reciprocal lattice vectors
     0.000000000  2.424871131  2.424871131    -0.206196525  0.206196525  0.206196525
     2.424871131  0.000000000  2.424871131     0.206196525 -0.206196525  0.206196525
     2.424871131  2.424871131  0.000000000     0.206196525  0.206196525 -0.206196525

  length of vectors
     3.429285640  3.429285640  3.429285640     0.357142857  0.357142857  0.357142857


 
 k-points in units of 2pi/SCALE and weight: Gamma centered Monkhorst-Pack           
   0.00000000  0.00000000  0.00000000       0.001
  -0.08333333  0.08333333  0.08333333       0.005
  -0.16666667  0.16666667  0.16666667       0.005
  -0.25000000  0.25000000  0.25000000       0.005
  -0.33333333  0.33333333  0.33333333       0.005
  -0.41666667  0.41666667  0.41666667       0.005
  -0.50000000  0.50000000  0.50000000       0.002
   0.00000000  0.00000000  0.16666667       0.003
  -0.08333333  0.08333333  0.25000000       0.014
  -0.16666667  0.16666667  0.33333333       0.014
  -0.25000000  0.25000000  0.41666667       0.014
  -0.33333333  0.33333333  0.50000000       0.014
  -0.41666667  0.41666667  0.58333333       0.014
   0.50000000 -0.50000000 -0.33333333       0.014
   0.41666667 -0.41666667 -0.25000000       0.014
   0.33333333 -0.33333333 -0.16666667       0.014
   0.25000000 -0.25000000 -0.08333333       0.014
   0.16666667 -0.16666667  0.00000000       0.007
   0.00000000  0.00000000  0.33333333       0.003
  -0.08333333  0.08333333  0.41666667       0.014
  -0.16666667  0.16666667  0.50000000       0.014
  -0.25000000  0.25000000  0.58333333       0.014
  -0.33333333  0.33333333  0.66666667       0.014
   0.58333333 -0.58333333 -0.25000000       0.014
   0.50000000 -0.50000000 -0.16666667       0.014
   0.41666667 -0.41666667 -0.08333333       0.014
   0.33333333 -0.33333333  0.00000000       0.007
   0.00000000  0.00000000  0.50000000       0.003
  -0.08333333  0.08333333  0.58333333       0.014
  -0.16666667  0.16666667  0.66666667       0.014
  -0.25000000  0.25000000  0.75000000       0.014
   0.66666667 -0.66666667 -0.16666667       0.014
   0.58333333 -0.58333333 -0.08333333       0.014
   0.50000000 -0.50000000  0.00000000       0.007
   0.00000000  0.00000000  0.66666667       0.003
  -0.08333333  0.08333333  0.75000000       0.014
  -0.16666667  0.16666667  0.83333333       0.014
   0.75000000 -0.75000000 -0.08333333       0.014
   0.66666667 -0.66666667  0.00000000       0.007
   0.00000000  0.00000000  0.83333333       0.003
  -0.08333333  0.08333333  0.91666667       0.014
   0.83333333 -0.83333333  0.00000000       0.007
   0.00000000  0.00000000  1.00000000       0.002
   0.00000000  0.16666667  0.33333333       0.014
  -0.08333333  0.25000000  0.41666667       0.028
  -0.16666667  0.33333333  0.50000000       0.028
  -0.25000000  0.41666667  0.58333333       0.028
   0.66666667 -0.50000000 -0.33333333       0.014
  -0.00000000  0.16666667  0.50000000       0.014
  -0.08333333  0.25000000  0.58333333       0.028
  -0.16666667  0.33333333  0.66666667       0.028
   0.75000000 -0.58333333 -0.25000000       0.028
   0.66666667 -0.50000000 -0.16666667       0.028
   0.58333333 -0.41666667 -0.08333333       0.028
   0.50000000 -0.33333333  0.00000000       0.014
  -0.00000000  0.16666667  0.66666667       0.014
  -0.08333333  0.25000000  0.75000000       0.028
   0.83333333 -0.66666667 -0.16666667       0.028
   0.75000000 -0.58333333 -0.08333333       0.028
   0.66666667 -0.50000000  0.00000000       0.014
   0.00000000  0.16666667  0.83333333       0.014
   0.91666667 -0.75000000 -0.08333333       0.028
   0.83333333 -0.66666667  0.00000000       0.014
   1.00000000 -0.83333333  0.00000000       0.007
   0.00000000  0.33333333  0.66666667       0.014
   0.91666667 -0.58333333 -0.25000000       0.028
   0.83333333 -0.50000000 -0.16666667       0.014
   1.00000000 -0.66666667 -0.16666667       0.014
   0.91666667 -0.58333333 -0.08333333       0.028
   0.83333333 -0.50000000  0.00000000       0.014
   1.00000000 -0.66666667  0.00000000       0.007
   1.00000000 -0.50000000  0.00000000       0.003
 
 k-points in reciprocal lattice and weights: Gamma centered Monkhorst-Pack           
   0.00000000  0.00000000  0.00000000       0.001
   0.08333333  0.00000000  0.00000000       0.005
   0.16666667  0.00000000  0.00000000       0.005
   0.25000000  0.00000000  0.00000000       0.005
   0.33333333  0.00000000  0.00000000       0.005
   0.41666667  0.00000000  0.00000000       0.005
   0.50000000  0.00000000  0.00000000       0.002
   0.08333333  0.08333333  0.00000000       0.003
   0.16666667  0.08333333  0.00000000       0.014
   0.25000000  0.08333333  0.00000000       0.014
   0.33333333  0.08333333  0.00000000       0.014
   0.41666667  0.08333333  0.00000000       0.014
   0.50000000  0.08333333  0.00000000       0.014
  -0.41666667  0.08333333  0.00000000       0.014
  -0.33333333  0.08333333  0.00000000       0.014
  -0.25000000  0.08333333  0.00000000       0.014
  -0.16666667  0.08333333  0.00000000       0.014
  -0.08333333  0.08333333  0.00000000       0.007
   0.16666667  0.16666667  0.00000000       0.003
   0.25000000  0.16666667  0.00000000       0.014
   0.33333333  0.16666667  0.00000000       0.014
   0.41666667  0.16666667  0.00000000       0.014
   0.50000000  0.16666667  0.00000000       0.014
  -0.41666667  0.16666667  0.00000000       0.014
  -0.33333333  0.16666667  0.00000000       0.014
  -0.25000000  0.16666667  0.00000000       0.014
  -0.16666667  0.16666667  0.00000000       0.007
   0.25000000  0.25000000  0.00000000       0.003
   0.33333333  0.25000000  0.00000000       0.014
   0.41666667  0.25000000  0.00000000       0.014
   0.50000000  0.25000000  0.00000000       0.014
  -0.41666667  0.25000000  0.00000000       0.014
  -0.33333333  0.25000000  0.00000000       0.014
  -0.25000000  0.25000000  0.00000000       0.007
   0.33333333  0.33333333  0.00000000       0.003
   0.41666667  0.33333333  0.00000000       0.014
   0.50000000  0.33333333  0.00000000       0.014
  -0.41666667  0.33333333  0.00000000       0.014
  -0.33333333  0.33333333  0.00000000       0.007
   0.41666667  0.41666667  0.00000000       0.003
   0.50000000  0.41666667  0.00000000       0.014
  -0.41666667  0.41666667  0.00000000       0.007
   0.50000000  0.50000000  0.00000000       0.002
   0.25000000  0.16666667  0.08333333       0.014
   0.33333333  0.16666667  0.08333333       0.028
   0.41666667  0.16666667  0.08333333       0.028
   0.50000000  0.16666667  0.08333333       0.028
  -0.41666667  0.16666667  0.08333333       0.014
   0.33333333  0.25000000  0.08333333       0.014
   0.41666667  0.25000000  0.08333333       0.028
   0.50000000  0.25000000  0.08333333       0.028
  -0.41666667  0.25000000  0.08333333       0.028
  -0.33333333  0.25000000  0.08333333       0.028
  -0.25000000  0.25000000  0.08333333       0.028
  -0.16666667  0.25000000  0.08333333       0.014
   0.41666667  0.33333333  0.08333333       0.014
   0.50000000  0.33333333  0.08333333       0.028
  -0.41666667  0.33333333  0.08333333       0.028
  -0.33333333  0.33333333  0.08333333       0.028
  -0.25000000  0.33333333  0.08333333       0.014
   0.50000000  0.41666667  0.08333333       0.014
  -0.41666667  0.41666667  0.08333333       0.028
  -0.33333333  0.41666667  0.08333333       0.014
  -0.41666667  0.50000000  0.08333333       0.007
   0.50000000  0.33333333  0.16666667       0.014
  -0.41666667  0.33333333  0.16666667       0.028
  -0.33333333  0.33333333  0.16666667       0.014
  -0.41666667  0.41666667  0.16666667       0.014
  -0.33333333  0.41666667  0.16666667       0.028
  -0.25000000  0.41666667  0.16666667       0.014
  -0.33333333  0.50000000  0.16666667       0.007
  -0.25000000  0.50000000  0.25000000       0.003
 
 position of ions in fractional coordinates (direct lattice) 
   0.00000000  0.00000000  0.00000000
   0.25000000  0.25000000  0.25000000
 
 position of ions in cartesian coordinates  (Angst):
   0.00000000  0.00000000  0.00000000
   1.21243557  1.21243557  1.21243557
 


--------------------------------------------------------------------------------------------------------


 k-point  1 :   0.0000 0.0000 0.0000  plane waves:     941
 k-point  2 :   0.0833 0.0000 0.0000  plane waves:     944
 k-point  3 :   0.1667 0.0000 0.0000  plane waves:     941
 k-point  4 :   0.2500 0.0000 0.0000  plane waves:     947
 k-point  5 :   0.3333 0.0000 0.0000  plane waves:     956
 k-point  6 :   0.4167 0.0000 0.0000  plane waves:     951
 k-point  7 :   0.5000 0.0000 0.0000  plane waves:     960
 k-point  8 :   0.0833 0.0833 0.0000  plane waves:     937
 k-point  9 :   0.1667 0.0833 0.0000  plane waves:     938
 k-point 10 :   0.2500 0.0833 0.0000  plane waves:     945
 k-point 11 :   0.3333 0.0833 0.0000  plane waves:     953
 k-point 12 :   0.4167 0.0833 0.0000  plane waves:     953
 k-point 13 :   0.5000 0.0833 0.0000  plane waves:     951
 k-point 14 :  -0.4167 0.0833 0.0000  plane waves:     950
 k-point 15 :  -0.3333 0.0833 0.0000  plane waves:     951
 k-point 16 :  -0.2500 0.0833 0.0000  plane waves:     951
 k-point 17 :  -0.1667 0.0833 0.0000  plane waves:     939
 k-point 18 :  -0.0833 0.0833 0.0000  plane waves:     939
 k-point 19 :   0.1667 0.1667 0.0000  plane waves:     950
 k-point 20 :   0.2500 0.1667 0.0000  plane waves:     951
 k-point 21 :   0.3333 0.1667 0.0000  plane waves:     953
 k-point 22 :   0.4167 0.1667 0.0000  plane waves:     951
 k-point 23 :   0.5000 0.1667 0.0000  plane waves:     942
 k-point 24 :  -0.4167 0.1667 0.0000  plane waves:     949
 k-point 25 :  -0.3333 0.1667 0.0000  plane waves:     945
 k-point 26 :  -0.2500 0.1667 0.0000  plane waves:     946
 k-point 27 :  -0.1667 0.1667 0.0000  plane waves:     941
 k-point 28 :   0.2500 0.2500 0.0000  plane waves:     950
 k-point 29 :   0.3333 0.2500 0.0000  plane waves:     958
 k-point 30 :   0.4167 0.2500 0.0000  plane waves:     958
 k-point 31 :   0.5000 0.2500 0.0000  plane waves:     959
 k-point 32 :  -0.4167 0.2500 0.0000  plane waves:     955
 k-point 33 :  -0.3333 0.2500 0.0000  plane waves:     951
 k-point 34 :  -0.2500 0.2500 0.0000  plane waves:     959
 k-point 35 :   0.3333 0.3333 0.0000  plane waves:     962
 k-point 36 :   0.4167 0.3333 0.0000  plane waves:     956
 k-point 37 :   0.5000 0.3333 0.0000  plane waves:     956
 k-point 38 :  -0.4167 0.3333 0.0000  plane waves:     955
 k-point 39 :  -0.3333 0.3333 0.0000  plane waves:     955
 k-point 40 :   0.4167 0.4167 0.0000  plane waves:     958
 k-point 41 :   0.5000 0.4167 0.0000  plane waves:     960
 k-point 42 :  -0.4167 0.4167 0.0000  plane waves:     955
 k-point 43 :   0.5000 0.5000 0.0000  plane waves:     950
 k-point 44 :   0.2500 0.1667 0.0833  plane waves:     946
 k-point 45 :   0.3333 0.1667 0.0833  plane waves:     950
 k-point 46 :   0.4167 0.1667 0.0833  plane waves:     952
 k-point 47 :   0.5000 0.1667 0.0833  plane waves:     950
 k-point 48 :  -0.4167 0.1667 0.0833  plane waves:     956
 k-point 49 :   0.3333 0.2500 0.0833  plane waves:     953
 k-point 50 :   0.4167 0.2500 0.0833  plane waves:     953
 k-point 51 :   0.5000 0.2500 0.0833  plane waves:     945
 k-point 52 :  -0.4167 0.2500 0.0833  plane waves:     955
 k-point 53 :  -0.3333 0.2500 0.0833  plane waves:     953
 k-point 54 :  -0.2500 0.2500 0.0833  plane waves:     949
 k-point 55 :  -0.1667 0.2500 0.0833  plane waves:     952
 k-point 56 :   0.4167 0.3333 0.0833  plane waves:     957
 k-point 57 :   0.5000 0.3333 0.0833  plane waves:     952
 k-point 58 :  -0.4167 0.3333 0.0833  plane waves:     952
 k-point 59 :  -0.3333 0.3333 0.0833  plane waves:     954
 k-point 60 :  -0.2500 0.3333 0.0833  plane waves:     948
 k-point 61 :   0.5000 0.4167 0.0833  plane waves:     963
 k-point 62 :  -0.4167 0.4167 0.0833  plane waves:     958
 k-point 63 :  -0.3333 0.4167 0.0833  plane waves:     956
 k-point 64 :  -0.4167 0.5000 0.0833  plane waves:     962
 k-point 65 :   0.5000 0.3333 0.1667  plane waves:     947
 k-point 66 :  -0.4167 0.3333 0.1667  plane waves:     954
 k-point 67 :  -0.3333 0.3333 0.1667  plane waves:     952
 k-point 68 :  -0.4167 0.4167 0.1667  plane waves:     958
 k-point 69 :  -0.3333 0.4167 0.1667  plane waves:     952
 k-point 70 :  -0.2500 0.4167 0.1667  plane waves:     951
 k-point 71 :  -0.3333 0.5000 0.1667  plane waves:     956
 k-point 72 :  -0.2500 0.5000 0.2500  plane waves:     952

 maximum and minimum number of plane-waves per node :       963      937

 maximum number of plane-waves:       963
 maximum index in each direction: 
   IXMAX=    7   IYMAX=    6   IZMAX=    6
   IXMIN=   -7   IYMIN=   -7   IZMIN=   -7

 WARNING: aliasing errors must be expected set NGX to  30 to avoid them
 WARNING: aliasing errors must be expected set NGY to  28 to avoid them
 WARNING: aliasing errors must be expected set NGZ to  28 to avoid them
 aliasing errors are usually negligible using standard VASP settings
 and one can safely disregard these warnings

 serial   3D FFT for wavefunctions
 parallel 3D FFT for charge:
    minimum data exchange during FFTs selected (reduces bandwidth)


 total amount of memory used by VASP on root node    39686. kBytes
========================================================================

   base      :      30000. kBytes
   nonl-proj :       4472. kBytes
   fftplans  :       1025. kBytes
   grid      :       1926. kBytes
   one-center:          6. kBytes
   wavefun   :       2257. kBytes
 
     INWAV:  cpu time    0.00: real time    0.00
 Broyden mixing: mesh for mixing (old mesh)
   NGX = 13   NGY = 13   NGZ = 13
  (NGX  = 48   NGY  = 48   NGZ  = 48)
  gives a total of   2197 points

 initial charge density was supplied:
 charge density of overlapping atoms calculated
 number of electron       8.0000000 magnetization 
 keeping initial charge density in first step


--------------------------------------------------------------------------------------------------------


 Maximum index for augmentation-charges         3921 (set IRDMAX)


--------------------------------------------------------------------------------------------------------


 First call to EWALD:  gamma=   0.580
 Maximum number of real-space cells 3x 3x 3
 Maximum number of reciprocal cells 3x 3x 3

 FEWALD executed in parallel
    FEWALD:  cpu time    0.00: real time    0.00


----------------------------------------- Iteration    1(   1)  ---------------------------------------


    POTLOK:  cpu time    0.01: real time    0.01
    SETDIJ:  cpu time    0.00: real time    0.00
     EDDAV:  cpu time    0.21: real time    0.21
       DOS:  cpu time    0.00: real time    0.00
    --------------------------------------------
      LOOP:  cpu time    0.23: real time    0.23

 eigenvalue-minimisations  :  1152
 total energy-change (2. order) : 0.1193729E+02  (-0.3979224E+03)
 number of electron       8.0000000 magnetization 
 augmentation part        8.0000000 magnetization 

 Free energy of the ion-electron system (eV)
  ---------------------------------------------------
  alpha Z        PSCENC =         4.72191141
  Ewald energy   TEWEN  =      -255.91049452
  -Hartree energ DENC   =        -6.52275505
  -exchange      EXHF   =         0.00000000
  -V(xc)+E(xc)   XCENC  =       -17.13699381
  PAW double counting   =        65.95520812      -30.76852678
  entropy T*S    EENTRO =        -0.00029262
  eigenvalues    EBANDS =        45.46611671
  atomic energy  EATOM  =       206.13311910
  ---------------------------------------------------
  free energy    TOTEN  =        11.93729256 eV

  energy without entropy =       11.93758518  energy(sigma->0) =       11.93743887


--------------------------------------------------------------------------------------------------------




----------------------------------------- Iteration    1(   2)  ---------------------------------------


     EDDAV:  cpu time    0.30: real time    0.32
       DOS:  cpu time    0.00: real time    0.00
    --------------------------------------------
      LOOP:  cpu time    0.30: real time    0.32

 eigenvalue-minimisations  :  1784
 total energy-change (2. order) :-0.2111617E+02  (-0.2076051E+02)
 number of electron       8.0000000 magnetization 
 augmentation part        8.0000000 magnetization 

 Free energy of the ion-electron system (eV)
  ---------------------------------------------------
  alpha Z        PSCENC =         4.72191141
  Ewald energy   TEWEN  =      -255.91049452
  -Hartree energ DENC   =        -6.52275505
  -exchange      EXHF   =         0.00000000
  -V(xc)+E(xc)   XCENC  =       -17.13699381
  PAW double counting   =        65.95520812      -30.76852678
  entropy T*S    EENTRO =        -0.00000433
  eigenvalues    EBANDS =        24.34965402
  atomic energy  EATOM  =       206.13311910
  ---------------------------------------------------
  free energy    TOTEN  =        -9.17888185 eV

  energy without entropy =       -9.17887751  energy(sigma->0) =       -9.17887968


--------------------------------------------------------------------------------------------------------




----------------------------------------- Iteration    1(   3)  ---------------------------------------


     EDDAV:  cpu time    0.25: real time    0.26
       DOS:  cpu time    0.00: real time    0.00
    --------------------------------------------
      LOOP:  cpu time    0.25: real time    0.26

 eigenvalue-minimisations  :  1416
 total energy-change (2. order) :-0.2177602E+00  (-0.2177601E+00)
 number of electron       8.0000000 magnetization 
 augmentation part        8.0000000 magnetization 

 Free energy of the ion-electron system (eV)
  ---------------------------------------------------
  alpha Z        PSCENC =         4.72191141
  Ewald energy   TEWEN  =      -255.91049452
  -Hartree energ DENC   =        -6.52275505
  -exchange      EXHF   =         0.00000000
  -V(xc)+E(xc)   XCENC  =       -17.13699381
  PAW double counting   =        65.95520812      -30.76852678
  entropy T*S    EENTRO =        -0.00000392
  eigenvalues    EBANDS =        24.13189344
  atomic energy  EATOM  =       206.13311910
  ---------------------------------------------------
  free energy    TOTEN  =        -9.39664202 eV

  energy without entropy =       -9.39663810  energy(sigma->0) =       -9.39664006


--------------------------------------------------------------------------------------------------------




----------------------------------------- Iteration    1(   4)  ---------------------------------------


     EDDAV:  cpu time    0.33: real time    0.35
       DOS:  cpu time    0.00: real time    0.00
    --------------------------------------------
      LOOP:  cpu time    0.33: real time    0.35

 eigenvalue-minimisations  :  1944
 total energy-change (2. order) :-0.8196742E-03  (-0.8196753E-03)
 number of electron       8.0000000 magnetization 
 augmentation part        8.0000000 magnetization 

 Free energy of the ion-electron system (eV)
  ---------------------------------------------------
  alpha Z        PSCENC =         4.72191141
  Ewald energy   TEWEN  =      -255.91049452
  -Hartree energ DENC   =        -6.52275505
  -exchange      EXHF   =         0.00000000
  -V(xc)+E(xc)   XCENC  =       -17.13699381
  PAW double counting   =        65.95520812      -30.76852678
  entropy T*S    EENTRO =        -0.00000391
  eigenvalues    EBANDS =        24.13107375
  atomic energy  EATOM  =       206.13311910
  ---------------------------------------------------
  free energy    TOTEN  =        -9.39746169 eV

  energy without entropy =       -9.39745778  energy(sigma->0) =       -9.39745974


--------------------------------------------------------------------------------------------------------




----------------------------------------- Iteration    1(   5)  ---------------------------------------


     EDDAV:  cpu time    0.27: real time    0.28
       DOS:  cpu time    0.00: real time    0.00
    CHARGE:  cpu time    0.02: real time    0.03
    MIXING:  cpu time    0.00: real time    0.00
    --------------------------------------------
      LOOP:  cpu time    0.29: real time    0.31

 eigenvalue-minimisations  :  1520
 total energy-change (2. order) :-0.5979816E-06  (-0.5967025E-06)
 number of electron       8.0000001 magnetization 
 augmentation part       -0.5100375 magnetization 

 Broyden mixing:
  rms(total) = 0.39471E+00    rms(broyden)= 0.39471E+00
  rms(prec ) = 0.12365E+01
  weight for this iteration     100.00

 Free energy of the ion-electron system (eV)
  ---------------------------------------------------
  alpha Z        PSCENC =         4.72191141
  Ewald energy   TEWEN  =      -255.91049452
  -Hartree energ DENC   =        -6.52275505
  -exchange      EXHF   =         0.00000000
  -V(xc)+E(xc)   XCENC  =       -17.13699381
  PAW double counting   =        65.95520812      -30.76852678
  entropy T*S    EENTRO =        -0.00000391
  eigenvalues    EBANDS =        24.13107315
  atomic energy  EATOM  =       206.13311910
  ---------------------------------------------------
  free energy    TOTEN  =        -9.39746229 eV

  energy without entropy =       -9.39745838  energy(sigma->0) =       -9.39746034


--------------------------------------------------------------------------------------------------------




----------------------------------------- Iteration    1(   6)  ---------------------------------------


    POTLOK:  cpu time    0.02: real time    0.03
    SETDIJ:  cpu time    0.00: real time    0.00
     EDDAV:  cpu time    0.22: real time    0.22
       DOS:  cpu time    0.00: real time    0.00
    CHARGE:  cpu time    0.02: real time    0.02
    MIXING:  cpu time    0.00: real time    0.00
    --------------------------------------------
      LOOP:  cpu time    0.26: real time    0.27

 eigenvalue-minimisations  :  1208
 total energy-change (2. order) : 0.3323657E+00  (-0.2530810E-01)
 number of electron       8.0000001 magnetization 
 augmentation part       -0.4988281 magnetization 

 Broyden mixing:
  rms(total) = 0.22101E+00    rms(broyden)= 0.22101E+00
  rms(prec ) = 0.68122E+00
  weight for this iteration     100.00

 eigenvalues of (default mixing * dielectric matrix)
  average eigenvalue GAMMA=   2.2502
  2.2502

 Free energy of the ion-electron system (eV)
  ---------------------------------------------------
  alpha Z        PSCENC =         4.72191141
  Ewald energy   TEWEN  =      -255.91049452
  -Hartree energ DENC   =        -8.38745916
  -exchange      EXHF   =         0.00000000
  -V(xc)+E(xc)   XCENC  =       -16.81616400
  PAW double counting   =        76.25669254      -41.35816581
  entropy T*S    EENTRO =        -0.00019472
  eigenvalues    EBANDS =        26.29565851
  atomic energy  EATOM  =       206.13311910
  ---------------------------------------------------
  free energy    TOTEN  =        -9.06509663 eV

  energy without entropy =       -9.06490191  energy(sigma->0) =       -9.06499927


--------------------------------------------------------------------------------------------------------




----------------------------------------- Iteration    1(   7)  ---------------------------------------


    POTLOK:  cpu time    0.02: real time    0.02
    SETDIJ:  cpu time    0.00: real time    0.01
     EDDAV:  cpu time    0.26: real time    0.27
       DOS:  cpu time    0.00: real time    0.00
    CHARGE:  cpu time    0.02: real time    0.02
    MIXING:  cpu time    0.00: real time    0.00
    --------------------------------------------
      LOOP:  cpu time    0.30: real time    0.32

 eigenvalue-minimisations  :  1432
 total energy-change (2. order) : 0.1247815E+00  (-0.3440076E-01)
 number of electron       8.0000001 magnetization 
 augmentation part       -0.4867530 magnetization 

 Broyden mixing:
  rms(total) = 0.22160E-01    rms(broyden)= 0.22160E-01
  rms(prec ) = 0.61043E-01
  weight for this iteration     100.00

 eigenvalues of (default mixing * dielectric matrix)
  average eigenvalue GAMMA=   2.3895
  2.3895  2.3895

 Free energy of the ion-electron system (eV)
  ---------------------------------------------------
  alpha Z        PSCENC =         4.72191141
  Ewald energy   TEWEN  =      -255.91049452
  -Hartree energ DENC   =       -11.04901243
  -exchange      EXHF   =         0.00000000
  -V(xc)+E(xc)   XCENC  =       -16.34988569
  PAW double counting   =        90.45975898      -55.92785296
  entropy T*S    EENTRO =        -0.00064091
  eigenvalues    EBANDS =        28.98278188
  atomic energy  EATOM  =       206.13311910
  ---------------------------------------------------
  free energy    TOTEN  =        -8.94031514 eV

  energy without entropy =       -8.93967423  energy(sigma->0) =       -8.93999468


--------------------------------------------------------------------------------------------------------




----------------------------------------- Iteration    1(   8)  ---------------------------------------


    POTLOK:  cpu time    0.01: real time    0.01
    SETDIJ:  cpu time    0.00: real time    0.00
     EDDAV:  cpu time    0.24: real time    0.25
       DOS:  cpu time    0.00: real time    0.00
    CHARGE:  cpu time    0.02: real time    0.02
    MIXING:  cpu time    0.00: real time    0.00
    --------------------------------------------
      LOOP:  cpu time    0.27: real time    0.28

 eigenvalue-minimisations  :  1352
 total energy-change (2. order) :-0.1156519E-02  (-0.9073356E-03)
 number of electron       8.0000001 magnetization 
 augmentation part       -0.4886028 magnetization 

 Broyden mixing:
  rms(total) = 0.72362E-02    rms(broyden)= 0.72362E-02
  rms(prec ) = 0.25756E-01
  weight for this iteration     100.00

 eigenvalues of (default mixing * dielectric matrix)
  average eigenvalue GAMMA=   2.0184
  2.7903  1.4734  1.7915

 Free energy of the ion-electron system (eV)
  ---------------------------------------------------
  alpha Z        PSCENC =         4.72191141
  Ewald energy   TEWEN  =      -255.91049452
  -Hartree energ DENC   =       -10.92159227
  -exchange      EXHF   =         0.00000000
  -V(xc)+E(xc)   XCENC  =       -16.33109709
  PAW double counting   =        89.79772439      -55.23630459
  entropy T*S    EENTRO =        -0.00056747
  eigenvalues    EBANDS =        28.80582937
  atomic energy  EATOM  =       206.13311910
  ---------------------------------------------------
  free energy    TOTEN  =        -8.94147166 eV

  energy without entropy =       -8.94090419  energy(sigma->0) =       -8.94118793


--------------------------------------------------------------------------------------------------------




----------------------------------------- Iteration    1(   9)  ---------------------------------------


    POTLOK:  cpu time    0.01: real time    0.01
    SETDIJ:  cpu time    0.00: real time    0.00
     EDDAV:  cpu time    0.29: real time    0.30
       DOS:  cpu time    0.00: real time    0.00
    CHARGE:  cpu time    0.02: real time    0.02
    MIXING:  cpu time    0.00: real time    0.00
    --------------------------------------------
      LOOP:  cpu time    0.32: real time    0.34

 eigenvalue-minimisations  :  1656
 total energy-change (2. order) : 0.1278626E-03  (-0.6259190E-04)
 number of electron       8.0000001 magnetization 
 augmentation part       -0.4882001 magnetization 

 Broyden mixing:
  rms(total) = 0.20189E-02    rms(broyden)= 0.20189E-02
  rms(prec ) = 0.46095E-02
  weight for this iteration     100.00

 eigenvalues of (default mixing * dielectric matrix)
  average eigenvalue GAMMA=   2.1299
  1.0061  2.7312  2.7312  2.0510

 Free energy of the ion-electron system (eV)
  ---------------------------------------------------
  alpha Z        PSCENC =         4.72191141
  Ewald energy   TEWEN  =      -255.91049452
  -Hartree energ DENC   =       -11.04600203
  -exchange      EXHF   =         0.00000000
  -V(xc)+E(xc)   XCENC  =       -16.31057493
  PAW double counting   =        90.38200003      -55.83603146
  entropy T*S    EENTRO =        -0.00058339
  eigenvalues    EBANDS =        28.92531199
  atomic energy  EATOM  =       206.13311910
  ---------------------------------------------------
  free energy    TOTEN  =        -8.94134380 eV

  energy without entropy =       -8.94076041  energy(sigma->0) =       -8.94105210


--------------------------------------------------------------------------------------------------------




----------------------------------------- Iteration    1(  10)  ---------------------------------------


    POTLOK:  cpu time    0.01: real time    0.02
    SETDIJ:  cpu time    0.00: real time    0.00
     EDDAV:  cpu time    0.26: real time    0.28
       DOS:  cpu time    0.00: real time    0.00
    CHARGE:  cpu time    0.02: real time    0.02
    MIXING:  cpu time    0.00: real time    0.00
    --------------------------------------------
      LOOP:  cpu time    0.30: real time    0.32

 eigenvalue-minimisations  :  1520
 total energy-change (2. order) :-0.6990593E-05  (-0.2954924E-05)
 number of electron       8.0000001 magnetization 
 augmentation part       -0.4882197 magnetization 

 Broyden mixing:
  rms(total) = 0.15714E-03    rms(broyden)= 0.15714E-03
  rms(prec ) = 0.35774E-03
  weight for this iteration     100.00

 eigenvalues of (default mixing * dielectric matrix)
  average eigenvalue GAMMA=   1.9255
  2.9977  2.6001  2.0282  1.0469  0.9547

 Free energy of the ion-electron system (eV)
  ---------------------------------------------------
  alpha Z        PSCENC =         4.72191141
  Ewald energy   TEWEN  =      -255.91049452
  -Hartree energ DENC   =       -11.04111257
  -exchange      EXHF   =         0.00000000
  -V(xc)+E(xc)   XCENC  =       -16.31258508
  PAW double counting   =        90.23498758      -55.68659396
  entropy T*S    EENTRO =        -0.00058044
  eigenvalues    EBANDS =        28.91999768
  atomic energy  EATOM  =       206.13311910
  ---------------------------------------------------
  free energy    TOTEN  =        -8.94135079 eV

  energy without entropy =       -8.94077035  energy(sigma->0) =       -8.94106057


--------------------------------------------------------------------------------------------------------




----------------------------------------- Iteration    1(  11)  ---------------------------------------


    POTLOK:  cpu time    0.01: real time    0.02
    SETDIJ:  cpu time    0.00: real time    0.00
     EDDAV:  cpu time    0.30: real time    0.31
       DOS:  cpu time    0.00: real time    0.00
    CHARGE:  cpu time    0.02: real time    0.02
    MIXING:  cpu time    0.00: real time    0.00
    --------------------------------------------
      LOOP:  cpu time    0.34: real time    0.35

 eigenvalue-minimisations  :  1728
 total energy-change (2. order) :-0.7315674E-07  (-0.2996966E-07)
 number of electron       8.0000001 magnetization 
 augmentation part       -0.4882276 magnetization 

 Broyden mixing:
  rms(total) = 0.50103E-04    rms(broyden)= 0.50102E-04
  rms(prec ) = 0.78033E-04
  weight for this iteration     100.00

 eigenvalues of (default mixing * dielectric matrix)
  average eigenvalue GAMMA=   2.0399
  3.0004  2.6040  2.6040  2.0459  0.9926  0.9926

 Free energy of the ion-electron system (eV)
  ---------------------------------------------------
  alpha Z        PSCENC =         4.72191141
  Ewald energy   TEWEN  =      -255.91049452
  -Hartree energ DENC   =       -11.04164685
  -exchange      EXHF   =         0.00000000
  -V(xc)+E(xc)   XCENC  =       -16.31228298
  PAW double counting   =        90.24038262      -55.69196708
  entropy T*S    EENTRO =        -0.00058023
  eigenvalues    EBANDS =        28.92020767
  atomic energy  EATOM  =       206.13311910
  ---------------------------------------------------
  free energy    TOTEN  =        -8.94135086 eV

  energy without entropy =       -8.94077063  energy(sigma->0) =       -8.94106075


--------------------------------------------------------------------------------------------------------




----------------------------------------- Iteration    1(  12)  ---------------------------------------


    POTLOK:  cpu time    0.02: real time    0.02
    SETDIJ:  cpu time    0.00: real time    0.00
     EDDAV:  cpu time    0.30: real time    0.33
       DOS:  cpu time    0.00: real time    0.00
    CHARGE:  cpu time    0.02: real time    0.02
    MIXING:  cpu time    0.00: real time    0.00
    --------------------------------------------
      LOOP:  cpu time    0.33: real time    0.37

 eigenvalue-minimisations  :  1528
 total energy-change (2. order) :-0.8114529E-07  (-0.1020900E-08)
 number of electron       8.0000001 magnetization 
 augmentation part       -0.4882259 magnetization 

 Broyden mixing:
  rms(total) = 0.10857E-04    rms(broyden)= 0.10857E-04
  rms(prec ) = 0.27177E-04
  weight for this iteration     100.00

 eigenvalues of (default mixing * dielectric matrix)
  average eigenvalue GAMMA=   1.9106
  3.0781  2.6678  2.4816  2.0499  0.9727  1.0619  1.0619

 Free energy of the ion-electron system (eV)
  ---------------------------------------------------
  alpha Z        PSCENC =         4.72191141
  Ewald energy   TEWEN  =      -255.91049452
  -Hartree energ DENC   =       -11.04187236
  -exchange      EXHF   =         0.00000000
  -V(xc)+E(xc)   XCENC  =       -16.31225468
  PAW double counting   =        90.24755350      -55.69917239
  entropy T*S    EENTRO =        -0.00058025
  eigenvalues    EBANDS =        28.92043923
  atomic energy  EATOM  =       206.13311910
  ---------------------------------------------------
  free energy    TOTEN  =        -8.94135094 eV

  energy without entropy =       -8.94077069  energy(sigma->0) =       -8.94106082


--------------------------------------------------------------------------------------------------------




----------------------------------------- Iteration    1(  13)  ---------------------------------------


    POTLOK:  cpu time    0.01: real time    0.01
    SETDIJ:  cpu time    0.00: real time    0.00
     EDDAV:  cpu time    0.29: real time    0.30
       DOS:  cpu time    0.00: real time    0.00
    CHARGE:  cpu time    0.02: real time    0.02
    MIXING:  cpu time    0.00: real time    0.00
    --------------------------------------------
      LOOP:  cpu time    0.32: real time    0.34

 eigenvalue-minimisations  :  1608
 total energy-change (2. order) : 0.2064419E-07  (-0.7874285E-10)
 number of electron       8.0000001 magnetization 
 augmentation part       -0.4882262 magnetization 

 Broyden mixing:
  rms(total) = 0.15376E-05    rms(broyden)= 0.15375E-05
  rms(prec ) = 0.28911E-05
  weight for this iteration     100.00

 eigenvalues of (default mixing * dielectric matrix)
  average eigenvalue GAMMA=   1.9957
  3.0885  2.0453  2.7539  2.6539  2.4363  1.0064  1.0064  0.9750

 Free energy of the ion-electron system (eV)
  ---------------------------------------------------
  alpha Z        PSCENC =         4.72191141
  Ewald energy   TEWEN  =      -255.91049452
  -Hartree energ DENC   =       -11.04179361
  -exchange      EXHF   =         0.00000000
  -V(xc)+E(xc)   XCENC  =       -16.31227170
  PAW double counting   =        90.24676501      -55.69836652
  entropy T*S    EENTRO =        -0.00058023
  eigenvalues    EBANDS =        28.92036012
  atomic energy  EATOM  =       206.13311910
  ---------------------------------------------------
  free energy    TOTEN  =        -8.94135092 eV

  energy without entropy =       -8.94077069  energy(sigma->0) =       -8.94106081


--------------------------------------------------------------------------------------------------------




----------------------------------------- Iteration    1(  14)  ---------------------------------------


    POTLOK:  cpu time    0.01: real time    0.01
    SETDIJ:  cpu time    0.00: real time    0.00
     EDDAV:  cpu time    0.20: real time    0.21
       DOS:  cpu time    0.00: real time    0.00
    CHARGE:  cpu time    0.02: real time    0.02
    MIXING:  cpu time    0.00: real time    0.00
    --------------------------------------------
      LOOP:  cpu time    0.23: real time    0.25

 eigenvalue-minimisations  :  1008
 total energy-change (2. order) :-0.1663778E-08  (-0.2001277E-11)
 number of electron       8.0000001 magnetization 
 augmentation part       -0.4882262 magnetization 

 Broyden mixing:
  rms(total) = 0.16400E-06    rms(broyden)= 0.16397E-06
  rms(prec ) = 0.24388E-06
  weight for this iteration     100.00

 eigenvalues of (default mixing * dielectric matrix)
  average eigenvalue GAMMA=   1.8725
  3.0813  2.0434  2.8015  2.6109  2.4967  1.0069  1.0069  0.9746  0.8308

 Free energy of the ion-electron system (eV)
  ---------------------------------------------------
  alpha Z        PSCENC =         4.72191141
  Ewald energy   TEWEN  =      -255.91049452
  -Hartree energ DENC   =       -11.04180119
  -exchange      EXHF   =         0.00000000
  -V(xc)+E(xc)   XCENC  =       -16.31227031
  PAW double counting   =        90.24666019      -55.69826318
  entropy T*S    EENTRO =        -0.00058023
  eigenvalues    EBANDS =        28.92036781
  atomic energy  EATOM  =       206.13311910
  ---------------------------------------------------
  free energy    TOTEN  =        -8.94135092 eV

  energy without entropy =       -8.94077070  energy(sigma->0) =       -8.94106081


--------------------------------------------------------------------------------------------------------




----------------------------------------- Iteration    1(  15)  ---------------------------------------


    POTLOK:  cpu time    0.01: real time    0.02
    SETDIJ:  cpu time    0.00: real time    0.00
     EDDAV:  cpu time    0.19: real time    0.23
       DOS:  cpu time    0.00: real time    0.00
    --------------------------------------------
      LOOP:  cpu time    0.20: real time    0.25

 eigenvalue-minimisations  :   776
 total energy-change (2. order) :-0.3549872E-10  (-0.8234128E-13)
 number of electron       8.0000001 magnetization 
 augmentation part       -0.4882262 magnetization 

 Free energy of the ion-electron system (eV)
  ---------------------------------------------------
  alpha Z        PSCENC =         4.72191141
  Ewald energy   TEWEN  =      -255.91049452
  -Hartree energ DENC   =       -11.04180091
  -exchange      EXHF   =         0.00000000
  -V(xc)+E(xc)   XCENC  =       -16.31227035
  PAW double counting   =        90.24663652      -55.69823953
  entropy T*S    EENTRO =        -0.00058023
  eigenvalues    EBANDS =        28.92036759
  atomic energy  EATOM  =       206.13311910
  ---------------------------------------------------
  free energy    TOTEN  =        -8.94135092 eV

  energy without entropy =       -8.94077070  energy(sigma->0) =       -8.94106081


--------------------------------------------------------------------------------------------------------




 average (electrostatic) potential at core
  the test charge radii are     0.9892
  (the norm of the test charge is              1.0000)
       1 -79.0674       2 -79.0674
 
 
 
 E-fermi :   9.6980     XC(G=0): -10.8007     alpha+bet :-16.8215


 k-point     1 :       0.0000    0.0000    0.0000
  band No.  band energies     occupation 
      1      -4.8239      2.00000
      2       9.8347      0.00841
      3       9.8347      0.00841
      4       9.8347      0.00841
      5      12.4620      0.00000
      6      12.4620      0.00000
      7      12.4620      0.00000
      8      17.4693      0.00000

 k-point     2 :       0.0833    0.0000    0.0000
  band No.  band energies     occupation 
      1      -4.7035      2.00000
      2       8.8372      2.00000
      3       9.6304      1.87420
      4       9.6304      1.87420
      5      12.7633      0.00000
      6      12.7633      0.00000
      7      12.8108      0.00000
      8      17.2647      0.00000

 k-point     3 :       0.1667    0.0000    0.0000
  band No.  band energies     occupation 
      1      -4.3446      2.00000
      2       6.9886      2.00000
      3       9.2263      2.00000
      4       9.2263      2.00000
      5      12.9924      0.00000
      6      13.3162      0.00000
      7      13.3162      0.00000
      8      16.8012      0.00000

 k-point     4 :       0.2500    0.0000    0.0000
  band No.  band energies     occupation 
      1      -3.7562      2.00000
      2       5.0459      2.00000
      3       8.8469      2.00000
      4       8.8469      2.00000
      5      12.8869      0.00000
      6      13.4868      0.00000
      7      13.4868      0.00000
      8      17.1025      0.00000

 k-point     5 :       0.3333    0.0000    0.0000
  band No.  band energies     occupation 
      1      -2.9624      2.00000
      2       3.2245      2.00000
      3       8.5676      2.00000
      4       8.5676      2.00000
      5      12.7256      0.00000
      6      13.2138      0.00000
      7      13.2138      0.00000
      8      18.3046      0.00000

 k-point     6 :       0.4167    0.0000    0.0000
  band No.  band energies     occupation 
      1      -2.0494      2.00000
      2       1.6775      2.00000
      3       8.4028      2.00000
      4       8.4028      2.00000
      5      12.6103      0.00000
      6      12.9157      0.00000
      7      12.9157      0.00000
      8      18.0278      0.00000

 k-point     7 :       0.5000    0.0000    0.0000
  band No.  band energies     occupation 
      1      -1.4795      2.00000
      2       0.8938      2.00000
      3       8.3489      2.00000
      4       8.3489      2.00000
      5      12.5702      0.00000
      6      12.8001      0.00000
      7      12.8001      0.00000
      8      17.8781      0.00000

 k-point     8 :       0.0833    0.0833    0.0000
  band No.  band energies     occupation 
      1      -4.6632      2.00000
      2       9.1893      2.00000
      3       9.1893      2.00000
      4       9.2899      2.00000
      5      12.0983      0.00000
      6      13.2994      0.00000
      7      13.2994      0.00000
      8      16.3983      0.00000

 k-point     9 :       0.1667    0.0833    0.0000
  band No.  band energies     occupation 
      1      -4.3836      2.00000
      2       7.6383      2.00000
      3       8.6965      2.00000
      4       9.1677      2.00000
      5      12.1678      0.00000
      6      13.8026      0.00000
      7      14.0053      0.00000
      8      15.5304      0.00000

 k-point    10 :       0.2500    0.0833    0.0000
  band No.  band energies     occupation 
      1      -3.8707      2.00000
      2       5.7386      2.00000
      3       8.3044      2.00000
      4       8.7725      2.00000
      5      12.4979      0.00000
      6      13.8557      0.00000
      7      14.3505      0.00000
      8      15.3184      0.00000

 k-point    11 :       0.3333    0.0833    0.0000
  band No.  band energies     occupation 
      1      -3.1416      2.00000
      2       3.8817      2.00000
      3       8.0635      2.00000
      4       8.3316      2.00000
      5      12.4779      0.00000
      6      13.6601      0.00000
      7      14.1005      0.00000
      8      16.1850      0.00000

 k-point    12 :       0.4167    0.0833    0.0000
  band No.  band energies     occupation 
      1      -2.2496      2.00000
      2       2.2293      2.00000
      3       7.9470      2.00000
      4       7.9853      2.00000
      5      12.3400      0.00000
      6      13.4804      0.00000
      7      13.6579      0.00000
      8      17.6254      0.00000

 k-point    13 :       0.5000    0.0833    0.0000
  band No.  band energies     occupation 
      1      -1.4560      2.00000
      2       1.0840      2.00000
      3       7.6583      2.00000
      4       8.0632      2.00000
      5      12.3513      0.00000
      6      13.3095      0.00000
      7      13.3815      0.00000
      8      18.4527      0.00000

 k-point    14 :      -0.4167    0.0833    0.0000
  band No.  band energies     occupation 
      1      -1.6671      2.00000
      2       1.3664      2.00000
      3       7.4933      2.00000
      4       8.2798      2.00000
      5      12.5724      0.00000
      6      13.1557      0.00000
      7      13.3757      0.00000
      8      18.5415      0.00000

 k-point    15 :      -0.3333    0.0833    0.0000
  band No.  band energies     occupation 
      1      -2.5588      2.00000
      2       2.7498      2.00000
      3       7.4757      2.00000
      4       8.6095      2.00000
      5      12.9468      0.00000
      6      13.2065      0.00000
      7      13.4851      0.00000
      8      17.8179      0.00000

 k-point    16 :      -0.2500    0.0833    0.0000
  band No.  band energies     occupation 
      1      -3.4075      2.00000
      2       4.4883      2.00000
      3       7.6228      2.00000
      4       9.0173      2.00000
      5      13.2834      0.00000
      6      13.3443      0.00000
      7      13.7374      0.00000
      8      16.4443      0.00000

 k-point    17 :      -0.1667    0.0833    0.0000
  band No.  band energies     occupation 
      1      -4.0674      2.00000
      2       6.3730      2.00000
      3       7.9469      2.00000
      4       9.4418      1.99993
      5      13.1966      0.00000
      6      13.4112      0.00000
      7      13.8255      0.00000
      8      15.9510      0.00000

 k-point    18 :      -0.0833    0.0833    0.0000
  band No.  band energies     occupation 
      1      -4.5035      2.00000
      2       8.0895      2.00000
      3       8.5570      2.00000
      4       9.7304      0.42905
      5      12.7735      0.00000
      6      13.1290      0.00000
      7      13.4710      0.00000
      8      16.4302      0.00000

 k-point    19 :       0.1667    0.1667    0.0000
  band No.  band energies     occupation 
      1      -4.1834      2.00000
      2       7.9776      2.00000
      3       8.1460      2.00000
      4       8.1460      2.00000
      5      11.3139      0.00000
      6      14.2860      0.00000
      7      14.9022      0.00000
      8      14.9022      0.00000

 k-point    20 :       0.2500    0.1667    0.0000
  band No.  band energies     occupation 
      1      -3.7483      2.00000
      2       6.4121      2.00000
      3       7.7132      2.00000
      4       7.9152      2.00000
      5      11.3439      0.00000
      6      13.5456      0.00000
      7      15.4452      0.00000
      8      15.5490      0.00000

 k-point    21 :       0.3333    0.1667    0.0000
  band No.  band energies     occupation 
      1      -3.0901      2.00000
      2       4.6361      2.00000
      3       7.3767      2.00000
      4       7.4475      2.00000
      5      11.5417      0.00000
      6      13.7629      0.00000
      7      15.4916      0.00000
      8      15.5752      0.00000

 k-point    22 :       0.4167    0.1667    0.0000
  band No.  band energies     occupation 
      1      -2.2435      2.00000
      2       2.9542      2.00000
      3       6.8092      2.00000
      4       7.3645      2.00000
      5      11.4852      0.00000
      6      14.6034      0.00000
      7      15.0365      0.00000
      8      15.9286      0.00000

 k-point    23 :       0.5000    0.1667    0.0000
  band No.  band energies     occupation 
      1      -1.3526      2.00000
      2       1.5983      2.00000
      3       6.3367      2.00000
      4       7.4645      2.00000
      5      11.5352      0.00000
      6      14.5774      0.00000
      7      14.8357      0.00000
      8      17.3313      0.00000

 k-point    24 :      -0.4167    0.1667    0.0000
  band No.  band energies     occupation 
      1      -1.1480      2.00000
      2       1.3315      2.00000
      3       6.0121      2.00000
      4       7.7362      2.00000
      5      11.8070      0.00000
      6      14.2611      0.00000
      7      14.8038      0.00000
      8      19.1896      0.00000

 k-point    25 :      -0.3333    0.1667    0.0000
  band No.  band energies     occupation 
      1      -1.9455      2.00000
      2       2.4724      2.00000
      3       5.8683      2.00000
      4       8.1549      2.00000
      5      12.2930      0.00000
      6      14.1250      0.00000
      7      14.7597      0.00000
      8      17.5221      0.00000

 k-point    26 :      -0.2500    0.1667    0.0000
  band No.  band energies     occupation 
      1      -2.8336      2.00000
      2       4.0754      2.00000
      3       5.9415      2.00000
      4       8.6710      2.00000
      5      12.9270      0.00000
      6      14.0847      0.00000
      7      14.6667      0.00000
      8      16.0156      0.00000

 k-point    27 :      -0.1667    0.1667    0.0000
  band No.  band energies     occupation 
      1      -3.5581      2.00000
      2       5.6316      2.00000
      3       6.4446      2.00000
      4       9.1770      2.00000
      5      13.5311      0.00000
      6      13.7072      0.00000
      7      14.2618      0.00000
      8      15.4889      0.00000

 k-point    28 :       0.2500    0.2500    0.0000
  band No.  band energies     occupation 
      1      -3.3910      2.00000
      2       6.2880      2.00000
      3       7.2319      2.00000
      4       7.2319      2.00000
      5      10.5189      0.00000
      6      12.3810      0.00000
      7      16.7048      0.00000
      8      16.7048      0.00000

 k-point    29 :       0.3333    0.2500    0.0000
  band No.  band energies     occupation 
      1      -2.8072      2.00000
      2       5.0631      2.00000
      3       6.6337      2.00000
      4       6.9186      2.00000
      5      10.5931      0.00000
      6      11.9907      0.00000
      7      17.1229      0.00000
      8      17.2739      0.00000

 k-point    30 :       0.4167    0.2500    0.0000
  band No.  band energies     occupation 
      1      -2.0200      2.00000
      2       3.6114      2.00000
      3       5.8107      2.00000
      4       6.7942      2.00000
      5      10.6847      0.00000
      6      12.8306      0.00000
      7      16.7799      0.00000
      8      17.3736      0.00000

 k-point    31 :       0.5000    0.2500    0.0000
  band No.  band energies     occupation 
      1      -1.1116      2.00000
      2       2.2460      2.00000
      3       5.1049      2.00000
      4       6.8632      2.00000
      5      10.7425      0.00000
      6      14.3472      0.00000
      7      16.2863      0.00000
      8      17.3811      0.00000

 k-point    32 :      -0.4167    0.2500    0.0000
  band No.  band energies     occupation 
      1      -0.5550      2.00000
      2       1.5457      2.00000
      3       4.6068      2.00000
      4       7.1199      2.00000
      5      11.0065      0.00000
      6      15.7067      0.00000
      7      15.8829      0.00000
      8      17.8188      0.00000

 k-point    33 :      -0.3333    0.2500    0.0000
  band No.  band energies     occupation 
      1      -1.1558      2.00000
      2       2.3343      2.00000
      3       4.3629      2.00000
      4       7.5458      2.00000
      5      11.4966      0.00000
      6      15.6311      0.00000
      7      16.0638      0.00000
      8      17.4348      0.00000

 k-point    34 :      -0.2500    0.2500    0.0000
  band No.  band energies     occupation 
      1      -2.0574      2.00000
      2       3.5322      2.00000
      3       4.6073      2.00000
      4       8.0979      2.00000
      5      12.1745      0.00000
      6      15.2590      0.00000
      7      15.6799      0.00000
      8      16.0148      0.00000

 k-point    35 :       0.3333    0.3333    0.0000
  band No.  band energies     occupation 
      1      -2.2980      2.00000
      2       4.4136      2.00000
      3       6.5511      2.00000
      4       6.5511      2.00000
      5       9.9184      0.00030
      6      10.9701      0.00000
      7      18.5706      0.00000
      8      18.5706      0.00000

 k-point    36 :       0.4167    0.3333    0.0000
  band No.  band energies     occupation 
      1      -1.5777      2.00000
      2       3.3947      2.00000
      3       5.8078      2.00000
      4       6.3723      2.00000
      5      10.0442      0.00000
      6      10.9886      0.00000
      7      18.7376      0.00000
      8      19.1441      0.00000

 k-point    37 :       0.5000    0.3333    0.0000
  band No.  band energies     occupation 
      1      -0.6952      2.00000
      2       2.3747      2.00000
      3       4.7089      2.00000
      4       6.3906      2.00000
      5      10.1325      0.00000
      6      12.2998      0.00000
      7      18.2869      0.00000
      8      19.1985      0.00000

 k-point    38 :      -0.4167    0.3333    0.0000
  band No.  band energies     occupation 
      1       0.0704      2.00000
      2       1.6154      2.00000
      3       3.8554      2.00000
      4       6.6044      2.00000
      5      10.3652      0.00000
      6      14.0996      0.00000
      7      17.8386      0.00000
      8      19.0416      0.00000

 k-point    39 :      -0.3333    0.3333    0.0000
  band No.  band energies     occupation 
      1      -0.2901      2.00000
      2       1.9720      2.00000
      3       3.5650      2.00000
      4       7.0006      2.00000
      5      10.8273      0.00000
      6      15.8530      0.00000
      7      17.4174      0.00000
      8      17.6410      0.00000

 k-point    40 :       0.4167    0.4167    0.0000
  band No.  band energies     occupation 
      1      -0.9248      2.00000
      2       2.5051      2.00000
      3       6.1350      2.00000
      4       6.1350      2.00000
      5       9.6073      1.94827
      6      10.0769      0.00000
      7      20.4521      0.00000
      8      20.4521      0.00000

 k-point    41 :       0.5000    0.4167    0.0000
  band No.  band energies     occupation 
      1      -0.0898      2.00000
      2       1.6050      2.00000
      3       5.4350      2.00000
      4       6.0953      2.00000
      5       9.7557      0.18089
      6      10.5095      0.00000
      7      20.4596      0.00000
      8      20.9563      0.00000

 k-point    42 :      -0.4167    0.4167    0.0000
  band No.  band energies     occupation 
      1       0.6509      2.00000
      2       1.0165      2.00000
      3       4.3677      2.00000
      4       6.2546      2.00000
      5       9.9455      0.00010
      6      12.1278      0.00000
      7      19.9278      0.00000
      8      20.1505      0.00000

 k-point    43 :       0.5000    0.5000    0.0000
  band No.  band energies     occupation 
      1       0.6950      2.00000
      2       0.6950      2.00000
      3       5.9952      2.00000
      4       5.9952      2.00000
      5       9.6429      1.80110
      6       9.6429      1.80110
      7      21.9147      0.00000
      8      21.9147      0.00000

 k-point    44 :       0.2500    0.1667    0.0833
  band No.  band energies     occupation 
      1      -4.0264      2.00000
      2       6.8420      2.00000
      3       7.5087      2.00000
      4       9.0141      2.00000
      5      12.1830      0.00000
      6      14.3090      0.00000
      7      14.6407      0.00000
      8      14.7313      0.00000

 k-point    45 :       0.3333    0.1667    0.0833
  band No.  band energies     occupation 
      1      -3.4405      2.00000
      2       5.1984      2.00000
      3       6.9279      2.00000
      4       8.6243      2.00000
      5      12.5390      0.00000
      6      14.0050      0.00000
      7      14.7828      0.00000
      8      15.1049      0.00000

 k-point    46 :       0.4167    0.1667    0.0833
  band No.  band energies     occupation 
      1      -2.6498      2.00000
      2       3.4444      2.00000
      3       6.6910      2.00000
      4       8.1441      2.00000
      5      12.5564      0.00000
      6      13.6018      0.00000
      7      14.9987      0.00000
      8      15.8843      0.00000

 k-point    47 :       0.5000    0.1667    0.0833
  band No.  band energies     occupation 
      1      -1.7386      2.00000
      2       1.9232      2.00000
      3       6.6105      2.00000
      4       7.7626      2.00000
      5      12.5022      0.00000
      6      13.1965      0.00000
      7      14.9147      0.00000
      8      17.4833      0.00000

 k-point    48 :      -0.4167    0.1667    0.0833
  band No.  band energies     occupation 
      1      -1.1663      2.00000
      2       1.1437      2.00000
      3       6.6026      2.00000
      4       7.6115      2.00000
      5      12.5129      0.00000
      6      13.0054      0.00000
      7      14.8762      0.00000
      8      19.1578      0.00000

 k-point    49 :       0.3333    0.2500    0.0833
  band No.  band energies     occupation 
      1      -3.2392      2.00000
      2       5.5873      2.00000
      3       6.5874      2.00000
      4       7.6958      2.00000
      5      11.4278      0.00000
      6      12.9297      0.00000
      7      15.6428      0.00000
      8      16.5230      0.00000

 k-point    50 :       0.4167    0.2500    0.0833
  band No.  band energies     occupation 
      1      -2.5156      2.00000
      2       4.1480      2.00000
      3       5.9889      2.00000
      4       7.2269      2.00000
      5      11.7272      0.00000
      6      13.2958      0.00000
      7      15.3281      0.00000
      8      16.9820      0.00000

 k-point    51 :       0.5000    0.2500    0.0833
  band No.  band energies     occupation 
      1      -1.6288      2.00000
      2       2.6308      2.00000
      3       5.6441      2.00000
      4       6.8796      2.00000
      5      11.7585      0.00000
      6      14.2169      0.00000
      7      15.2870      0.00000
      8      17.0823      0.00000

 k-point    52 :      -0.4167    0.2500    0.0833
  band No.  band energies     occupation 
      1      -0.8345      2.00000
      2       1.5327      2.00000
      3       5.3431      2.00000
      4       6.8520      2.00000
      5      11.9180      0.00000
      6      14.1149      0.00000
      7      16.2077      0.00000
      8      17.6191      0.00000

 k-point    53 :      -0.3333    0.2500    0.0833
  band No.  band energies     occupation 
      1      -1.0584      2.00000
      2       1.8285      2.00000
      3       5.1302      2.00000
      4       7.1194      2.00000
      5      12.2747      0.00000
      6      13.8775      0.00000
      7      16.3480      0.00000
      8      17.5658      0.00000

 k-point    54 :      -0.2500    0.2500    0.0833
  band No.  band energies     occupation 
      1      -1.9491      2.00000
      2       3.1473      2.00000
      3       5.1032      2.00000
      4       7.5939      2.00000
      5      12.8004      0.00000
      6      13.7228      0.00000
      7      15.5406      0.00000
      8      16.5850      0.00000

 k-point    55 :      -0.1667    0.2500    0.0833
  band No.  band energies     occupation 
      1      -2.7888      2.00000
      2       4.5251      2.00000
      3       5.5181      2.00000
      4       8.1677      2.00000
      5      13.2744      0.00000
      6      13.4311      0.00000
      7      14.7149      0.00000
      8      16.0652      0.00000

 k-point    56 :       0.4167    0.3333    0.0833
  band No.  band energies     occupation 
      1      -2.1560      2.00000
      2       4.1647      2.00000
      3       5.9125      2.00000
      4       6.4852      2.00000
      5      10.8429      0.00000
      6      11.6676      0.00000
      7      17.0590      0.00000
      8      18.4705      0.00000

 k-point    57 :       0.5000    0.3333    0.0833
  band No.  band energies     occupation 
      1      -1.3179      2.00000
      2       3.0471      2.00000
      3       5.0881      2.00000
      4       6.1528      2.00000
      5      11.1059      0.00000
      6      12.5816      0.00000
      7      16.6164      0.00000
      8      18.9190      0.00000

 k-point    58 :      -0.4167    0.3333    0.0833
  band No.  band energies     occupation 
      1      -0.4311      2.00000
      2       1.9693      2.00000
      3       4.3727      2.00000
      4       6.1816      2.00000
      5      11.2593      0.00000
      6      14.1955      0.00000
      7      16.2331      0.00000
      8      18.8565      0.00000

 k-point    59 :      -0.3333    0.3333    0.0833
  band No.  band energies     occupation 
      1      -0.2722      2.00000
      2       1.8120      2.00000
      3       3.9391      2.00000
      4       6.4750      2.00000
      5      11.6091      0.00000
      6      15.2453      0.00000
      7      16.5219      0.00000
      8      17.7058      0.00000

 k-point    60 :      -0.2500    0.3333    0.0833
  band No.  band energies     occupation 
      1      -1.0860      2.00000
      2       2.6831      2.00000
      3       4.0111      2.00000
      4       6.9720      2.00000
      5      12.1523      0.00000
      6      14.9520      0.00000
      7      15.8369      0.00000
      8      17.5403      0.00000

 k-point    61 :       0.5000    0.4167    0.0833
  band No.  band energies     occupation 
      1      -0.8015      2.00000
      2       2.4943      2.00000
      3       5.5262      2.00000
      4       5.7491      2.00000
      5      10.5237      0.00000
      6      10.8865      0.00000
      7      18.6310      0.00000
      8      20.3749      0.00000

 k-point    62 :      -0.4167    0.4167    0.0833
  band No.  band energies     occupation 
      1       0.0972      2.00000
      2       1.6581      2.00000
      3       4.5099      2.00000
      4       5.7086      2.00000
      5      10.7801      0.00000
      6      12.2349      0.00000
      7      18.1818      0.00000
      8      19.8679      0.00000

 k-point    63 :      -0.3333    0.4167    0.0833
  band No.  band energies     occupation 
      1       0.4489      2.00000
      2       1.4197      2.00000
      3       3.7372      2.00000
      4       5.9869      2.00000
      5      11.0916      0.00000
      6      14.0995      0.00000
      7      17.7552      0.00000
      8      17.8553      0.00000

 k-point    64 :      -0.4167    0.5000    0.0833
  band No.  band energies     occupation 
      1       0.7788      2.00000
      2       0.7788      2.00000
      3       5.4575      2.00000
      4       5.4575      2.00000
      5      10.5233      0.00000
      6      10.5233      0.00000
      7      20.3475      0.00000
      8      20.3475      0.00000

 k-point    65 :       0.5000    0.3333    0.1667
  band No.  band energies     occupation 
      1      -1.7397      2.00000
      2       3.4890      2.00000
      3       4.8635      2.00000
      4       6.6132      2.00000
      5      12.7413      0.00000
      6      13.1314      0.00000
      7      14.9266      0.00000
      8      18.1554      0.00000

 k-point    66 :      -0.4167    0.3333    0.1667
  band No.  band energies     occupation 
      1      -0.8385      2.00000
      2       2.3907      2.00000
      3       4.4680      2.00000
      4       6.0900      2.00000
      5      12.8954      0.00000
      6      13.8087      0.00000
      7      15.2149      0.00000
      8      18.4346      0.00000

 k-point    67 :      -0.3333    0.3333    0.1667
  band No.  band energies     occupation 
      1      -0.2534      2.00000
      2       1.6819      2.00000
      3       4.4063      2.00000
      4       5.8872      2.00000
      5      12.9002      0.00000
      6      13.8323      0.00000
      7      16.3790      0.00000
      8      17.5942      0.00000

 k-point    68 :      -0.4167    0.4167    0.1667
  band No.  band energies     occupation 
      1      -0.4541      2.00000
      2       2.3455      2.00000
      3       4.5448      2.00000
      4       5.3109      2.00000
      5      12.4257      0.00000
      6      12.6279      0.00000
      7      16.1359      0.00000
      8      19.3397      0.00000

 k-point    69 :      -0.3333    0.4167    0.1667
  band No.  band energies     occupation 
      1       0.3438      2.00000
      2       1.6436      2.00000
      3       4.0249      2.00000
      4       5.1072      2.00000
      5      12.7055      0.00000
      6      14.1352      0.00000
      7      15.8679      0.00000
      8      17.3967      0.00000

 k-point    70 :      -0.2500    0.4167    0.1667
  band No.  band energies     occupation 
      1       0.0286      2.00000
      2       1.9286      2.00000
      3       3.8453      2.00000
      4       5.4420      2.00000
      5      13.0287      0.00000
      6      14.5367      0.00000
      7      15.5351      0.00000
      8      17.1236      0.00000

 k-point    71 :      -0.3333    0.5000    0.1667
  band No.  band energies     occupation 
      1       0.9726      2.00000
      2       0.9726      2.00000
      3       4.6443      2.00000
      4       4.6443      2.00000
      5      12.3808      0.00000
      6      12.3808      0.00000
      7      17.7309      0.00000
      8      17.7309      0.00000

 k-point    72 :      -0.2500    0.5000    0.2500
  band No.  band energies     occupation 
      1       1.0882      2.00000
      2       1.0882      2.00000
      3       4.2897      2.00000
      4       4.2897      2.00000
      5      14.0035      0.00000
      6      14.0035      0.00000
      7      15.8546      0.00000
      8      15.8546      0.00000


--------------------------------------------------------------------------------------------------------


 soft charge-density along one line, spin component           1
         0         1         2         3         4         5         6         7         8         9
 total charge-density along one line
 
 pseudopotential strength for first ion, spin component:           1
 18.003  -0.005   0.000   0.000   0.000  -0.000  -0.000  -0.000
 -0.005   0.006  -0.000  -0.000  -0.000   0.000   0.000   0.000
  0.000  -0.000   4.144  -0.000  -0.000  -0.008   0.000   0.000
  0.000  -0.000  -0.000   4.144  -0.000   0.000  -0.008   0.000
  0.000  -0.000  -0.000  -0.000   4.144   0.000   0.000  -0.008
 -0.000   0.000  -0.008   0.000   0.000   0.005  -0.000  -0.000
 -0.000   0.000   0.000  -0.008   0.000  -0.000   0.005  -0.000
 -0.000   0.000   0.000   0.000  -0.008  -0.000  -0.000   0.005
 total augmentation occupancy for first ion, spin component:           1
  1.508  -1.301  -0.000  -0.000  -0.000  -0.000   0.000   0.000
 -1.301   1.700  -0.000  -0.000  -0.000   0.000   0.000   0.000
 -0.000  -0.000   1.302  -0.000  -0.000  -0.867   0.000  -0.000
 -0.000  -0.000   0.000   1.302   0.000   0.000  -0.867  -0.000
 -0.000  -0.000  -0.000   0.000   1.302  -0.000  -0.000  -0.867
 -0.000   0.000  -0.867   0.000  -0.000   0.690  -0.000   0.000
  0.000   0.000   0.000  -0.867  -0.000  -0.000   0.690   0.000
  0.000   0.000  -0.000  -0.000  -0.867   0.000   0.000   0.690


------------------------ aborting loop because EDIFF is reached ----------------------------------------


    CHARGE:  cpu time    0.02: real time    0.02
    FORLOC:  cpu time    0.00: real time    0.00
    FORNL :  cpu time    0.02: real time    0.03
    STRESS:  cpu time    0.21: real time    0.22
    FORCOR:  cpu time    0.01: real time    0.01
    FORHAR:  cpu time    0.00: real time    0.00
    MIXING:  cpu time    0.00: real time    0.00
    OFIELD:  cpu time    0.00: real time    0.00

  FORCE on cell =-STRESS in cart. coord.  units (eV):
  Direction    XX          YY          ZZ          XY          YZ          ZX
  --------------------------------------------------------------------------------------
  Alpha Z     4.72191     4.72191     4.72191
  Ewald     -85.30354   -85.30354   -85.30354     0.00000     0.00000     0.00000
  Hartree     3.68060     3.68060     3.68060     0.00000     0.00000     0.00000
  E(xc)     -27.66263   -27.66263   -27.66263     0.00000     0.00000     0.00000
  Local     -25.21981   -25.21981   -25.21981     0.00001     0.00001     0.00001
  n-local    88.79039    90.40652    84.04704     3.13965    -1.97519     0.88896
  augment   -12.22404   -12.22404   -12.22404    -0.00001    -0.00001    -0.00001
  Kinetic    68.71711    62.28113    67.30195     3.54443     0.03949     1.20844
  Fock        0.00000     0.00000     0.00000     0.00000     0.00000     0.00000
  -------------------------------------------------------------------------------------
  Total      11.84055    11.84055    11.84055     0.00000     0.00000     0.00000
  in kB     665.25219   665.25219   665.25219     0.00000     0.00000     0.00000
  external pressure =      665.25 kB  Pullay stress =        0.00 kB


 VOLUME and BASIS-vectors are now :
 -----------------------------------------------------------------------------
  energy-cutoff  :      600.00
  volume of cell :       28.52
      direct lattice vectors                 reciprocal lattice vectors
     0.000000000  2.424871131  2.424871131    -0.206196525  0.206196525  0.206196525
     2.424871131  0.000000000  2.424871131     0.206196525 -0.206196525  0.206196525
     2.424871131  2.424871131  0.000000000     0.206196525  0.206196525 -0.206196525

  length of vectors
     3.429285640  3.429285640  3.429285640     0.357142857  0.357142857  0.357142857


 FORCES acting on ions
    electron-ion (+dipol)            ewald-force                    non-local-force                 convergence-correction
 -----------------------------------------------------------------------------------------------
   -.145E-06 -.145E-06 -.135E-06   -.162E-13 -.180E-13 -.219E-13   0.347E-17 0.520E-16 0.243E-16   -.464E-11 -.464E-11 -.464E-11
   0.145E-06 0.145E-06 0.135E-06   0.164E-13 0.180E-13 0.213E-13   -.382E-16 -.486E-16 -.208E-16   0.464E-11 0.464E-11 0.464E-11
 -----------------------------------------------------------------------------------------------
   -.111E-13 0.167E-13 0.136E-13   0.175E-15 0.109E-16 -.541E-15   -.347E-16 0.347E-17 0.347E-17   -.239E-14 -.146E-14 -.148E-14
 
 
 POSITION                                       TOTAL-FORCE (eV/Angst)
 -----------------------------------------------------------------------------------
      0.00000      0.00000      0.00000         0.000000     -0.000000     -0.000000
      1.21244      1.21244      1.21244        -0.000000      0.000000      0.000000
 -----------------------------------------------------------------------------------
    total drift:                               -0.000000      0.000000      0.000000


--------------------------------------------------------------------------------------------------------



  FREE ENERGIE OF THE ION-ELECTRON SYSTEM (eV)
  ---------------------------------------------------
  free  energy   TOTEN  =        -8.94135092 eV

  energy  without entropy=       -8.94077070  energy(sigma->0) =       -8.94106081
 


--------------------------------------------------------------------------------------------------------


    POTLOK:  cpu time    0.02: real time    0.02


--------------------------------------------------------------------------------------------------------


 writing wavefunctions
     LOOP+:  cpu time    4.70: real time    5.12
    4ORBIT:  cpu time    0.00: real time    0.00

 total amount of memory used by VASP on root node    39686. kBytes
========================================================================

   base      :      30000. kBytes
   nonl-proj :       4472. kBytes
   fftplans  :       1025. kBytes
   grid      :       1926. kBytes
   one-center:          6. kBytes
   wavefun   :       2257. kBytes
 
  
  
 General timing and accounting informations for this job:
 ========================================================
  
                  Total CPU time used (sec):        4.996
                            User time (sec):        4.908
                          System time (sec):        0.088
                         Elapsed time (sec):        5.540
  
                   Maximum memory used (kb):       44792.
                   Average memory used (kb):           0.
  
                          Minor page faults:         6173
                          Major page faults:            5
                 Voluntary context switches:          502
