 vasp.5.3.5 31Mar14 (build Jun 01 2017 17:55:53) complex                        
  
 executed on             LinuxIFC date 2020.11.10  15:18:18
 running on    4 total cores
 distrk:  each k-point on    4 cores,    1 groups
 distr:  one band on NCORES_PER_BAND=   1 cores,    4 groups


--------------------------------------------------------------------------------------------------------


 INCAR:
 POTCAR:   PAW_PBE Si 05Jan2001                   
 POTCAR:   PAW_PBE Si 05Jan2001                   
   VRHFIN =Si: s2p2                                                             
   LEXCH  = PE                                                                  
   EATOM  =   103.0669 eV,    7.5752 Ry                                         
                                                                                
   TITEL  = PAW_PBE Si 05Jan2001                                                
   LULTRA =        F    use ultrasoft PP ?                                      
   IUNSCR =        1    unscreen: 0-lin 1-nonlin 2-no                           
   RPACOR =    1.500    partial core radius                                     
   POMASS =   28.085; ZVAL   =    4.000    mass and valenz                      
   RCORE  =    1.900    outmost cutoff radius                                   
   RWIGS  =    2.480; RWIGS  =    1.312    wigner-seitz radius (au A)           
   ENMAX  =  245.345; ENMIN  =  184.009 eV                                      
   ICORE  =        2    local potential                                         
   LCOR   =        T    correct aug charges                                     
   LPAW   =        T    paw PP                                                  
   EAUG   =  322.069                                                            
   DEXC   =    -.007                                                            
   RMAX   =    2.944    core radius for proj-oper                               
   RAUG   =    1.300    factor for augmentation sphere                          
   RDEP   =    1.993    radius for radial grids                                 
   QCUT   =   -4.246; QGAM   =    8.493    optimization parameters              
                                                                                
   Description                                                                  
     l     E      TYP  RCUT    TYP  RCUT                                        
     0   .000     23  1.900                                                     
     0   .000     23  1.900                                                     
     1   .000     23  1.900                                                     
     1   .000     23  1.900                                                     
     2   .000      7  1.900                                                     
  local pseudopotential read in
  partial core-charges read in
  atomic valenz-charges read in
  non local Contribution for L=           0  read in
    real space projection operators read in
  non local Contribution for L=           0  read in
    real space projection operators read in
  non local Contribution for L=           1  read in
    real space projection operators read in
  non local Contribution for L=           1  read in
    real space projection operators read in
    PAW grid and wavefunctions read in
 
   number of l-projection  operators is LMAX  =           4
   number of lm-projection operators is LMMAX =           8
 
 PAW_PBE Si 05Jan2001                   :
 energy of atom  1       EATOM= -103.0669
 kinetic energy error for atom=    0.0003 (will be added to EATOM!!)
 
 
 POSCAR: Si
  positions in direct lattice
  velocities in cartesian coordinates
  No initial velocities read in
 exchange correlation table for  LEXCH =        8
   RHO(1)=    0.500       N(1)  =     2000
   RHO(2)=  100.500       N(2)  =     4000
 


--------------------------------------------------------------------------------------------------------


 ion  position               nearest neighbor table
   1  0.000  0.000  0.000-   2 2.60   2 2.60   2 2.60   2 2.60
   2  0.250  0.250  0.250-   1 2.60   1 2.60   1 2.60   1 2.60
 
  LATTYP: Found a face centered cubic cell.
 ALAT       =     6.0044427996
  
  Lattice vectors:
  
 A1 = (   0.0000000000,   3.0022213998,   3.0022213998)
 A2 = (   3.0022213998,   0.0000000000,   3.0022213998)
 A3 = (   3.0022213998,   3.0022213998,   0.0000000000)


Analysis of symmetry for initial positions (statically):
=====================================================================
 Subroutine PRICEL returns:
 Original cell was already a primitive cell.
 

 Routine SETGRP: Setting up the symmetry group for a 
 face centered cubic supercell.


 Subroutine GETGRP returns: Found 48 space group operations
 (whereof 24 operations were pure point group operations)
 out of a pool of 48 trial point group operations.


The static configuration has the point symmetry T_d .
 The point group associated with its full space group is O_h .


Analysis of symmetry for dynamics (positions and initial velocities):
=====================================================================
 Subroutine PRICEL returns:
 Original cell was already a primitive cell.
 

 Routine SETGRP: Setting up the symmetry group for a 
 face centered cubic supercell.


 Subroutine GETGRP returns: Found 48 space group operations
 (whereof 24 operations were pure point group operations)
 out of a pool of 48 trial point group operations.


The dynamic configuration has the point symmetry T_d .
 The point group associated with its full space group is O_h .


Analysis of constrained symmetry for selective dynamics:
=====================================================================
 Subroutine PRICEL returns:
 Original cell was already a primitive cell.
 

 Routine SETGRP: Setting up the symmetry group for a 
 face centered cubic supercell.


 Subroutine GETGRP returns: Found 48 space group operations
 (whereof 24 operations were pure point group operations)
 out of a pool of 48 trial point group operations.


The constrained configuration has the point symmetry T_d .
 The point group associated with its full space group is O_h .
 
 
 KPOINTS: Gamma centered Monkhorst-Pack           

Automatic generation of k-mesh.
Space group operators:
 irot       det(A)        alpha          n_x          n_y          n_z        tau_x        tau_y        tau_z
    1     1.000000     0.000001     1.000000     0.000000     0.000000     0.000000     0.000000     0.000000
    2     1.000000   120.000000    -0.577350    -0.577350    -0.577350     0.000000     0.000000     0.000000
    3     1.000000   120.000000     0.577350     0.577350     0.577350     0.000000     0.000000     0.000000
    4    -1.000000    90.000000     0.000000     0.000000    -1.000000     0.000000     0.000000     0.000000
    5    -1.000000   180.000000     0.000000     0.707107     0.707107     0.000000     0.000000     0.000000
    6    -1.000000    90.000000     0.000000     1.000000     0.000000     0.000000     0.000000     0.000000
    7     1.000000   180.000000     0.000000     0.000000     1.000000     0.000000     0.000000     0.000000
    8     1.000000   120.000000    -0.577350     0.577350     0.577350     0.000000     0.000000     0.000000
    9     1.000000   120.000000    -0.577350     0.577350    -0.577350     0.000000     0.000000     0.000000
   10    -1.000000    90.000000     0.000000     0.000000     1.000000     0.000000     0.000000     0.000000
   11    -1.000000    90.000000    -1.000000     0.000000     0.000000     0.000000     0.000000     0.000000
   12    -1.000000   180.000000     0.707107     0.000000     0.707107     0.000000     0.000000     0.000000
   13     1.000000   120.000000     0.577350    -0.577350     0.577350     0.000000     0.000000     0.000000
   14     1.000000   120.000000    -0.577350    -0.577350     0.577350     0.000000     0.000000     0.000000
   15     1.000000   180.000000     1.000000     0.000000     0.000000     0.000000     0.000000     0.000000
   16    -1.000000    90.000000     0.000000    -1.000000     0.000000     0.000000     0.000000     0.000000
   17    -1.000000   180.000000     0.707107     0.707107     0.000000     0.000000     0.000000     0.000000
   18    -1.000000    90.000000     1.000000     0.000000     0.000000     0.000000     0.000000     0.000000
   19     1.000000   120.000000     0.577350    -0.577350    -0.577350     0.000000     0.000000     0.000000
   20     1.000000   180.000000     0.000000     1.000000     0.000000     0.000000     0.000000     0.000000
   21     1.000000   120.000000     0.577350     0.577350    -0.577350     0.000000     0.000000     0.000000
   22    -1.000000   180.000000     0.000000    -0.707107     0.707107     0.000000     0.000000     0.000000
   23    -1.000000   180.000000     0.707107    -0.707107     0.000000     0.000000     0.000000     0.000000
   24    -1.000000   180.000000     0.707107     0.000000    -0.707107     0.000000     0.000000     0.000000
   25    -1.000000     0.000001     1.000000     0.000000     0.000000     0.250000     0.250000     0.250000
   26    -1.000000   120.000000    -0.577350    -0.577350    -0.577350     0.250000     0.250000     0.250000
   27    -1.000000   120.000000     0.577350     0.577350     0.577350     0.250000     0.250000     0.250000
   28     1.000000    90.000000     0.000000     0.000000    -1.000000     0.250000     0.250000     0.250000
   29     1.000000   180.000000     0.000000     0.707107     0.707107     0.250000     0.250000     0.250000
   30     1.000000    90.000000     0.000000     1.000000     0.000000     0.250000     0.250000     0.250000
   31    -1.000000   180.000000     0.000000     0.000000     1.000000     0.250000     0.250000     0.250000
   32    -1.000000   120.000000    -0.577350     0.577350     0.577350     0.250000     0.250000     0.250000
   33    -1.000000   120.000000    -0.577350     0.577350    -0.577350     0.250000     0.250000     0.250000
   34     1.000000    90.000000     0.000000     0.000000     1.000000     0.250000     0.250000     0.250000
   35     1.000000    90.000000    -1.000000     0.000000     0.000000     0.250000     0.250000     0.250000
   36     1.000000   180.000000     0.707107     0.000000     0.707107     0.250000     0.250000     0.250000
   37    -1.000000   120.000000     0.577350    -0.577350     0.577350     0.250000     0.250000     0.250000
   38    -1.000000   120.000000    -0.577350    -0.577350     0.577350     0.250000     0.250000     0.250000
   39    -1.000000   180.000000     1.000000     0.000000     0.000000     0.250000     0.250000     0.250000
   40     1.000000    90.000000     0.000000    -1.000000     0.000000     0.250000     0.250000     0.250000
   41     1.000000   180.000000     0.707107     0.707107     0.000000     0.250000     0.250000     0.250000
   42     1.000000    90.000000     1.000000     0.000000     0.000000     0.250000     0.250000     0.250000
   43    -1.000000   120.000000     0.577350    -0.577350    -0.577350     0.250000     0.250000     0.250000
   44    -1.000000   180.000000     0.000000     1.000000     0.000000     0.250000     0.250000     0.250000
   45    -1.000000   120.000000     0.577350     0.577350    -0.577350     0.250000     0.250000     0.250000
   46     1.000000   180.000000     0.000000    -0.707107     0.707107     0.250000     0.250000     0.250000
   47     1.000000   180.000000     0.707107    -0.707107     0.000000     0.250000     0.250000     0.250000
   48     1.000000   180.000000     0.707107     0.000000    -0.707107     0.250000     0.250000     0.250000
 
 Subroutine IBZKPT returns following result:
 ===========================================
 
 Found     72 irreducible k-points:
 
 Following reciprocal coordinates:
            Coordinates               Weight
  0.000000  0.000000  0.000000      1.000000
  0.083333  0.000000  0.000000      8.000000
  0.166667  0.000000  0.000000      8.000000
  0.250000  0.000000  0.000000      8.000000
  0.333333  0.000000  0.000000      8.000000
  0.416667  0.000000  0.000000      8.000000
  0.500000  0.000000  0.000000      4.000000
  0.083333  0.083333  0.000000      6.000000
  0.166667  0.083333  0.000000     24.000000
  0.250000  0.083333  0.000000     24.000000
  0.333333  0.083333  0.000000     24.000000
  0.416667  0.083333  0.000000     24.000000
  0.500000  0.083333  0.000000     24.000000
 -0.416667  0.083333  0.000000     24.000000
 -0.333333  0.083333  0.000000     24.000000
 -0.250000  0.083333  0.000000     24.000000
 -0.166667  0.083333  0.000000     24.000000
 -0.083333  0.083333  0.000000     12.000000
  0.166667  0.166667  0.000000      6.000000
  0.250000  0.166667  0.000000     24.000000
  0.333333  0.166667  0.000000     24.000000
  0.416667  0.166667  0.000000     24.000000
  0.500000  0.166667  0.000000     24.000000
 -0.416667  0.166667  0.000000     24.000000
 -0.333333  0.166667  0.000000     24.000000
 -0.250000  0.166667  0.000000     24.000000
 -0.166667  0.166667  0.000000     12.000000
  0.250000  0.250000  0.000000      6.000000
  0.333333  0.250000  0.000000     24.000000
  0.416667  0.250000  0.000000     24.000000
  0.500000  0.250000  0.000000     24.000000
 -0.416667  0.250000  0.000000     24.000000
 -0.333333  0.250000  0.000000     24.000000
 -0.250000  0.250000  0.000000     12.000000
  0.333333  0.333333  0.000000      6.000000
  0.416667  0.333333  0.000000     24.000000
  0.500000  0.333333  0.000000     24.000000
 -0.416667  0.333333  0.000000     24.000000
 -0.333333  0.333333  0.000000     12.000000
  0.416667  0.416667  0.000000      6.000000
  0.500000  0.416667  0.000000     24.000000
 -0.416667  0.416667  0.000000     12.000000
  0.500000  0.500000  0.000000      3.000000
  0.250000  0.166667  0.083333     24.000000
  0.333333  0.166667  0.083333     48.000000
  0.416667  0.166667  0.083333     48.000000
  0.500000  0.166667  0.083333     48.000000
 -0.416667  0.166667  0.083333     24.000000
  0.333333  0.250000  0.083333     24.000000
  0.416667  0.250000  0.083333     48.000000
  0.500000  0.250000  0.083333     48.000000
 -0.416667  0.250000  0.083333     48.000000
 -0.333333  0.250000  0.083333     48.000000
 -0.250000  0.250000  0.083333     48.000000
 -0.166667  0.250000  0.083333     24.000000
  0.416667  0.333333  0.083333     24.000000
  0.500000  0.333333  0.083333     48.000000
 -0.416667  0.333333  0.083333     48.000000
 -0.333333  0.333333  0.083333     48.000000
 -0.250000  0.333333  0.083333     24.000000
  0.500000  0.416667  0.083333     24.000000
 -0.416667  0.416667  0.083333     48.000000
 -0.333333  0.416667  0.083333     24.000000
 -0.416667  0.500000  0.083333     12.000000
  0.500000  0.333333  0.166667     24.000000
 -0.416667  0.333333  0.166667     48.000000
 -0.333333  0.333333  0.166667     24.000000
 -0.416667  0.416667  0.166667     24.000000
 -0.333333  0.416667  0.166667     48.000000
 -0.250000  0.416667  0.166667     24.000000
 -0.333333  0.500000  0.166667     12.000000
 -0.250000  0.500000  0.250000      6.000000
 
 Following cartesian coordinates:
            Coordinates               Weight
  0.000000  0.000000  0.000000      1.000000
 -0.083333  0.083333  0.083333      8.000000
 -0.166667  0.166667  0.166667      8.000000
 -0.250000  0.250000  0.250000      8.000000
 -0.333333  0.333333  0.333333      8.000000
 -0.416667  0.416667  0.416667      8.000000
 -0.500000  0.500000  0.500000      4.000000
  0.000000  0.000000  0.166667      6.000000
 -0.083333  0.083333  0.250000     24.000000
 -0.166667  0.166667  0.333333     24.000000
 -0.250000  0.250000  0.416667     24.000000
 -0.333333  0.333333  0.500000     24.000000
 -0.416667  0.416667  0.583333     24.000000
  0.500000 -0.500000 -0.333333     24.000000
  0.416667 -0.416667 -0.250000     24.000000
  0.333333 -0.333333 -0.166667     24.000000
  0.250000 -0.250000 -0.083333     24.000000
  0.166667 -0.166667  0.000000     12.000000
  0.000000  0.000000  0.333333      6.000000
 -0.083333  0.083333  0.416667     24.000000
 -0.166667  0.166667  0.500000     24.000000
 -0.250000  0.250000  0.583333     24.000000
 -0.333333  0.333333  0.666667     24.000000
  0.583333 -0.583333 -0.250000     24.000000
  0.500000 -0.500000 -0.166667     24.000000
  0.416667 -0.416667 -0.083333     24.000000
  0.333333 -0.333333  0.000000     12.000000
  0.000000  0.000000  0.500000      6.000000
 -0.083333  0.083333  0.583333     24.000000
 -0.166667  0.166667  0.666667     24.000000
 -0.250000  0.250000  0.750000     24.000000
  0.666667 -0.666667 -0.166667     24.000000
  0.583333 -0.583333 -0.083333     24.000000
  0.500000 -0.500000  0.000000     12.000000
  0.000000  0.000000  0.666667      6.000000
 -0.083333  0.083333  0.750000     24.000000
 -0.166667  0.166667  0.833333     24.000000
  0.750000 -0.750000 -0.083333     24.000000
  0.666667 -0.666667  0.000000     12.000000
  0.000000  0.000000  0.833333      6.000000
 -0.083333  0.083333  0.916667     24.000000
  0.833333 -0.833333  0.000000     12.000000
  0.000000  0.000000  1.000000      3.000000
  0.000000  0.166667  0.333333     24.000000
 -0.083333  0.250000  0.416667     48.000000
 -0.166667  0.333333  0.500000     48.000000
 -0.250000  0.416667  0.583333     48.000000
  0.666667 -0.500000 -0.333333     24.000000
  0.000000  0.166667  0.500000     24.000000
 -0.083333  0.250000  0.583333     48.000000
 -0.166667  0.333333  0.666667     48.000000
  0.750000 -0.583333 -0.250000     48.000000
  0.666667 -0.500000 -0.166667     48.000000
  0.583333 -0.416667 -0.083333     48.000000
  0.500000 -0.333333  0.000000     24.000000
 -0.000000  0.166667  0.666667     24.000000
 -0.083333  0.250000  0.750000     48.000000
  0.833333 -0.666667 -0.166667     48.000000
  0.750000 -0.583333 -0.083333     48.000000
  0.666667 -0.500000  0.000000     24.000000
  0.000000  0.166667  0.833333     24.000000
  0.916667 -0.750000 -0.083333     48.000000
  0.833333 -0.666667  0.000000     24.000000
  1.000000 -0.833333  0.000000     12.000000
  0.000000  0.333333  0.666667     24.000000
  0.916667 -0.583333 -0.250000     48.000000
  0.833333 -0.500000 -0.166667     24.000000
  1.000000 -0.666667 -0.166667     24.000000
  0.916667 -0.583333 -0.083333     48.000000
  0.833333 -0.500000  0.000000     24.000000
  1.000000 -0.666667  0.000000     12.000000
  1.000000 -0.500000  0.000000      6.000000
 


--------------------------------------------------------------------------------------------------------




 Dimension of arrays:
   k-points           NKPTS =     72   k-points in BZ     NKDIM =     72   number of bands    NBANDS=      8
   number of dos      NEDOS =    301   number of ions     NIONS =      2
   non local maximal  LDIM  =      4   non local SUM 2l+1 LMDIM =      8
   total plane-waves  NPLWV =  21952
   max r-space proj   IRMAX =      1   max aug-charges    IRDMAX=  13760
   dimension x,y,z NGX =    28 NGY =   28 NGZ =   28
   dimension x,y,z NGXF=    56 NGYF=   56 NGZF=   56
   support grid    NGXF=    56 NGYF=   56 NGZF=   56
   ions per type =               2
 NGX,Y,Z   is equivalent  to a cutoff of  10.96, 10.96, 10.96 a.u.
 NGXF,Y,Z  is equivalent  to a cutoff of  21.93, 21.93, 21.93 a.u.


 I would recommend the setting:
   dimension x,y,z NGX =    25 NGY =   25 NGZ =   25
 SYSTEM =  Si
 POSCAR =  Si

 Startparameter for this run:
   NWRITE =      2    write-flag & timer
   PREC   = normal    normal or accurate (medium, high low for compatibility)
   ISTART =      0    job   : 0-new  1-cont  2-samecut
   ICHARG =      2    charge: 1-file 2-atom 10-const
   ISPIN  =      1    spin polarized calculation?
   LNONCOLLINEAR =      F non collinear calculations
   LSORBIT =      F    spin-orbit coupling
   INIWAV =      1    electr: 0-lowe 1-rand  2-diag
   LASPH  =      F    aspherical Exc in radial PAW
   METAGGA=      F    non-selfconsistent MetaGGA calc.

 Electronic Relaxation 1
   ENCUT  =  600.0 eV  44.10 Ry    6.64 a.u.   8.48  8.48  8.48*2*pi/ulx,y,z
   ENINI  =  600.0     initial cutoff
   ENAUG  = 1200.0 eV  augmentation charge cutoff
   NELM   =    500;   NELMIN=  2; NELMDL= -5     # of ELM steps 
   EDIFF  = 0.1E-09   stopping-criterion for ELM
   LREAL  =      F    real-space projection
   NLSPLINE    = F    spline interpolate recip. space projectors
   LCOMPAT=      F    compatible to vasp.4.4
   GGA_COMPAT  = T    GGA compatible to vasp.4.4-vasp.4.6
   LMAXPAW     = -100 max onsite density
   LMAXMIX     =    2 max onsite mixed and CHGCAR
   VOSKOWN=      0    Vosko Wilk Nusair interpolation
   ROPT   =    0.00000
 Ionic relaxation
   EDIFFG = 0.1E-08   stopping-criterion for IOM
   NSW    =      0    number of steps for IOM
   NBLOCK =      1;   KBLOCK =      1    inner block; outer block 
   IBRION =     -1    ionic relax: 0-MD 1-quasi-New 2-CG
   NFREE  =      0    steps in history (QN), initial steepest desc. (CG)
   ISIF   =      2    stress and relaxation
   IWAVPR =     10    prediction:  0-non 1-charg 2-wave 3-comb
   ISYM   =      2    0-nonsym 1-usesym 2-fastsym
   LCORR  =      T    Harris-Foulkes like correction to forces

   POTIM  = 0.5000    time-step for ionic-motion
   TEIN   =    0.0    initial temperature
   TEBEG  =    0.0;   TEEND  =   0.0 temperature during run
   SMASS  =  -3.00    Nose mass-parameter (am)
   estimated Nose-frequenzy (Omega)   =  0.10E-29 period in steps =****** mass=  -0.412E-27a.u.
   SCALEE = 1.0000    scale energy and forces
   NPACO  =    256;   APACO  = 16.0  distance and # of slots for P.C.
   PSTRESS=    0.0 pullay stress

  Mass of Ions in am
   POMASS =  28.09
  Ionic Valenz
   ZVAL   =   4.00
  Atomic Wigner-Seitz radii
   RWIGS  =  -1.00
  virtual crystal weights 
   VCA    =   1.00
   NELECT =       8.0000    total number of electrons
   NUPDOWN=      -1.0000    fix difference up-down

 DOS related values:
   EMIN   =  10.00;   EMAX   =-10.00  energy-range for DOS
   EFERMI =   0.00
   ISMEAR =    -1;   SIGMA  =   0.03  broadening in eV -4-tet -1-fermi 0-gaus

 Electronic relaxation 2 (details)
   IALGO  =     38    algorithm
   LDIAG  =      T    sub-space diagonalisation (order eigenvalues)
   LSUBROT=      F    optimize rotation matrix (better conditioning)
   TURBO    =      0    0=normal 1=particle mesh
   IRESTART =      0    0=no restart 2=restart with 2 vectors
   NREBOOT  =      0    no. of reboots
   NMIN     =      0    reboot dimension
   EREF     =   0.00    reference energy to select bands
   IMIX   =      4    mixing-type and parameters
     AMIX     =   0.40;   BMIX     =  1.00
     AMIX_MAG =   1.60;   BMIX_MAG =  1.00
     AMIN     =   0.10
     WC   =   100.;   INIMIX=   1;  MIXPRE=   1;  MAXMIX= -45

 Intra band minimization:
   WEIMIN = 0.0000     energy-eigenvalue tresh-hold
   EBREAK =  0.31E-11  absolut break condition
   DEPER  =   0.30     relativ break condition  

   TIME   =   0.40     timestep for ELM

  volume/ion in A,a.u.               =      27.06       182.61
  Fermi-wavevector in a.u.,A,eV,Ry     =   0.865603  1.635753 10.194419  0.749269
  Thomas-Fermi vector in A             =   1.983870
 
 Write flags
   LWAVE  =      T    write WAVECAR
   LCHARG =      T    write CHGCAR
   LVTOT  =      F    write LOCPOT, total local potential
   LVHAR  =      F    write LOCPOT, Hartree potential only
   LELF   =      F    write electronic localiz. function (ELF)
   LORBIT =      0    0 simple, 1 ext, 2 COOP (PROOUT)


 Dipole corrections
   LMONO  =      F    monopole corrections only (constant potential shift)
   LDIPOL =      F    correct potential (dipole corrections)
   IDIPOL =      0    1-x, 2-y, 3-z, 4-all directions 
   EPSILON=  1.0000000 bulk dielectric constant

 Exchange correlation treatment:
   GGA     =    PE    GGA type
   LEXCH   =     8    internal setting for exchange type
   VOSKOWN=      0    Vosko Wilk Nusair interpolation
   LHFCALC =     F    Hartree Fock is set to
   LHFONE  =     F    Hartree Fock one center treatment
   AEXX    =    0.0000 exact exchange contribution

 Linear response parameters
   LEPSILON=     F    determine dielectric tensor
   LRPA    =     F    only Hartree local field effects (RPA)
   LNABLA  =     F    use nabla operator in PAW spheres
   LVEL    =     F    velocity operator in full k-point grid
   LINTERFAST=   F  fast interpolation
   KINTER  =     0    interpolate to denser k-point grid
   CSHIFT  =0.1000    complex shift for real part using Kramers Kronig
   OMEGAMAX=  -1.0    maximum frequency
   DEG_THRESHOLD= 0.2000000E-02 threshold for treating states as degnerate
   RTIME   =    0.100 relaxation time in fs

 Orbital magnetization related:
   ORBITALMAG=     F  switch on orbital magnetization
   LCHIMAG   =     F  perturbation theory with respect to B field
   DQ        =  0.001000  dq finite difference perturbation B field



--------------------------------------------------------------------------------------------------------


 Static calculation
 charge density and potential will be updated during run
 non-spin polarized calculation
 Variant of blocked Davidson
 Davidson routine will perform the subspace rotation
 perform sub-space diagonalisation
    after iterative eigenvector-optimisation
 modified Broyden-mixing scheme, WC =      100.0
 initial mixing is a Kerker type mixing with AMIX =  0.4000 and BMIX =      1.0000
 Hartree-type preconditioning will be used
 using additional bands            4
 reciprocal scheme for non local part
 use partial core corrections
 calculate Harris-corrections to forces 
   (improved forces if not selfconsistent)
 use gradient corrections 
 use of overlap-Matrix (Vanderbilt PP)
 Fermi-smearing in eV        SIGMA  =   0.03


--------------------------------------------------------------------------------------------------------


  energy-cutoff  :      600.00
  volume of cell :       54.12
      direct lattice vectors                 reciprocal lattice vectors
     0.000000000  3.002221400  3.002221400    -0.166543347  0.166543347  0.166543347
     3.002221400  0.000000000  3.002221400     0.166543347 -0.166543347  0.166543347
     3.002221400  3.002221400  0.000000000     0.166543347  0.166543347 -0.166543347

  length of vectors
     4.245782221  4.245782221  4.245782221     0.288461538  0.288461538  0.288461538


 
 k-points in units of 2pi/SCALE and weight: Gamma centered Monkhorst-Pack           
   0.00000000  0.00000000  0.00000000       0.001
  -0.08333333  0.08333333  0.08333333       0.005
  -0.16666667  0.16666667  0.16666667       0.005
  -0.25000000  0.25000000  0.25000000       0.005
  -0.33333333  0.33333333  0.33333333       0.005
  -0.41666667  0.41666667  0.41666667       0.005
  -0.50000000  0.50000000  0.50000000       0.002
   0.00000000  0.00000000  0.16666667       0.003
  -0.08333333  0.08333333  0.25000000       0.014
  -0.16666667  0.16666667  0.33333333       0.014
  -0.25000000  0.25000000  0.41666667       0.014
  -0.33333333  0.33333333  0.50000000       0.014
  -0.41666667  0.41666667  0.58333333       0.014
   0.50000000 -0.50000000 -0.33333333       0.014
   0.41666667 -0.41666667 -0.25000000       0.014
   0.33333333 -0.33333333 -0.16666667       0.014
   0.25000000 -0.25000000 -0.08333333       0.014
   0.16666667 -0.16666667  0.00000000       0.007
   0.00000000  0.00000000  0.33333333       0.003
  -0.08333333  0.08333333  0.41666667       0.014
  -0.16666667  0.16666667  0.50000000       0.014
  -0.25000000  0.25000000  0.58333333       0.014
  -0.33333333  0.33333333  0.66666667       0.014
   0.58333333 -0.58333333 -0.25000000       0.014
   0.50000000 -0.50000000 -0.16666667       0.014
   0.41666667 -0.41666667 -0.08333333       0.014
   0.33333333 -0.33333333  0.00000000       0.007
   0.00000000  0.00000000  0.50000000       0.003
  -0.08333333  0.08333333  0.58333333       0.014
  -0.16666667  0.16666667  0.66666667       0.014
  -0.25000000  0.25000000  0.75000000       0.014
   0.66666667 -0.66666667 -0.16666667       0.014
   0.58333333 -0.58333333 -0.08333333       0.014
   0.50000000 -0.50000000  0.00000000       0.007
   0.00000000  0.00000000  0.66666667       0.003
  -0.08333333  0.08333333  0.75000000       0.014
  -0.16666667  0.16666667  0.83333333       0.014
   0.75000000 -0.75000000 -0.08333333       0.014
   0.66666667 -0.66666667  0.00000000       0.007
   0.00000000  0.00000000  0.83333333       0.003
  -0.08333333  0.08333333  0.91666667       0.014
   0.83333333 -0.83333333  0.00000000       0.007
   0.00000000  0.00000000  1.00000000       0.002
   0.00000000  0.16666667  0.33333333       0.014
  -0.08333333  0.25000000  0.41666667       0.028
  -0.16666667  0.33333333  0.50000000       0.028
  -0.25000000  0.41666667  0.58333333       0.028
   0.66666667 -0.50000000 -0.33333333       0.014
   0.00000000  0.16666667  0.50000000       0.014
  -0.08333333  0.25000000  0.58333333       0.028
  -0.16666667  0.33333333  0.66666667       0.028
   0.75000000 -0.58333333 -0.25000000       0.028
   0.66666667 -0.50000000 -0.16666667       0.028
   0.58333333 -0.41666667 -0.08333333       0.028
   0.50000000 -0.33333333  0.00000000       0.014
  -0.00000000  0.16666667  0.66666667       0.014
  -0.08333333  0.25000000  0.75000000       0.028
   0.83333333 -0.66666667 -0.16666667       0.028
   0.75000000 -0.58333333 -0.08333333       0.028
   0.66666667 -0.50000000  0.00000000       0.014
   0.00000000  0.16666667  0.83333333       0.014
   0.91666667 -0.75000000 -0.08333333       0.028
   0.83333333 -0.66666667  0.00000000       0.014
   1.00000000 -0.83333333  0.00000000       0.007
   0.00000000  0.33333333  0.66666667       0.014
   0.91666667 -0.58333333 -0.25000000       0.028
   0.83333333 -0.50000000 -0.16666667       0.014
   1.00000000 -0.66666667 -0.16666667       0.014
   0.91666667 -0.58333333 -0.08333333       0.028
   0.83333333 -0.50000000  0.00000000       0.014
   1.00000000 -0.66666667  0.00000000       0.007
   1.00000000 -0.50000000  0.00000000       0.003
 
 k-points in reciprocal lattice and weights: Gamma centered Monkhorst-Pack           
   0.00000000  0.00000000  0.00000000       0.001
   0.08333333  0.00000000  0.00000000       0.005
   0.16666667  0.00000000  0.00000000       0.005
   0.25000000  0.00000000  0.00000000       0.005
   0.33333333  0.00000000  0.00000000       0.005
   0.41666667  0.00000000  0.00000000       0.005
   0.50000000  0.00000000  0.00000000       0.002
   0.08333333  0.08333333  0.00000000       0.003
   0.16666667  0.08333333  0.00000000       0.014
   0.25000000  0.08333333  0.00000000       0.014
   0.33333333  0.08333333  0.00000000       0.014
   0.41666667  0.08333333  0.00000000       0.014
   0.50000000  0.08333333  0.00000000       0.014
  -0.41666667  0.08333333  0.00000000       0.014
  -0.33333333  0.08333333  0.00000000       0.014
  -0.25000000  0.08333333  0.00000000       0.014
  -0.16666667  0.08333333  0.00000000       0.014
  -0.08333333  0.08333333  0.00000000       0.007
   0.16666667  0.16666667  0.00000000       0.003
   0.25000000  0.16666667  0.00000000       0.014
   0.33333333  0.16666667  0.00000000       0.014
   0.41666667  0.16666667  0.00000000       0.014
   0.50000000  0.16666667  0.00000000       0.014
  -0.41666667  0.16666667  0.00000000       0.014
  -0.33333333  0.16666667  0.00000000       0.014
  -0.25000000  0.16666667  0.00000000       0.014
  -0.16666667  0.16666667  0.00000000       0.007
   0.25000000  0.25000000  0.00000000       0.003
   0.33333333  0.25000000  0.00000000       0.014
   0.41666667  0.25000000  0.00000000       0.014
   0.50000000  0.25000000  0.00000000       0.014
  -0.41666667  0.25000000  0.00000000       0.014
  -0.33333333  0.25000000  0.00000000       0.014
  -0.25000000  0.25000000  0.00000000       0.007
   0.33333333  0.33333333  0.00000000       0.003
   0.41666667  0.33333333  0.00000000       0.014
   0.50000000  0.33333333  0.00000000       0.014
  -0.41666667  0.33333333  0.00000000       0.014
  -0.33333333  0.33333333  0.00000000       0.007
   0.41666667  0.41666667  0.00000000       0.003
   0.50000000  0.41666667  0.00000000       0.014
  -0.41666667  0.41666667  0.00000000       0.007
   0.50000000  0.50000000  0.00000000       0.002
   0.25000000  0.16666667  0.08333333       0.014
   0.33333333  0.16666667  0.08333333       0.028
   0.41666667  0.16666667  0.08333333       0.028
   0.50000000  0.16666667  0.08333333       0.028
  -0.41666667  0.16666667  0.08333333       0.014
   0.33333333  0.25000000  0.08333333       0.014
   0.41666667  0.25000000  0.08333333       0.028
   0.50000000  0.25000000  0.08333333       0.028
  -0.41666667  0.25000000  0.08333333       0.028
  -0.33333333  0.25000000  0.08333333       0.028
  -0.25000000  0.25000000  0.08333333       0.028
  -0.16666667  0.25000000  0.08333333       0.014
   0.41666667  0.33333333  0.08333333       0.014
   0.50000000  0.33333333  0.08333333       0.028
  -0.41666667  0.33333333  0.08333333       0.028
  -0.33333333  0.33333333  0.08333333       0.028
  -0.25000000  0.33333333  0.08333333       0.014
   0.50000000  0.41666667  0.08333333       0.014
  -0.41666667  0.41666667  0.08333333       0.028
  -0.33333333  0.41666667  0.08333333       0.014
  -0.41666667  0.50000000  0.08333333       0.007
   0.50000000  0.33333333  0.16666667       0.014
  -0.41666667  0.33333333  0.16666667       0.028
  -0.33333333  0.33333333  0.16666667       0.014
  -0.41666667  0.41666667  0.16666667       0.014
  -0.33333333  0.41666667  0.16666667       0.028
  -0.25000000  0.41666667  0.16666667       0.014
  -0.33333333  0.50000000  0.16666667       0.007
  -0.25000000  0.50000000  0.25000000       0.003
 
 position of ions in fractional coordinates (direct lattice) 
   0.00000000  0.00000000  0.00000000
   0.25000000  0.25000000  0.25000000
 
 position of ions in cartesian coordinates  (Angst):
   0.00000000  0.00000000  0.00000000
   1.50111070  1.50111070  1.50111070
 


--------------------------------------------------------------------------------------------------------


 k-point  1 :   0.0000 0.0000 0.0000  plane waves:    1807
 k-point  2 :   0.0833 0.0000 0.0000  plane waves:    1823
 k-point  3 :   0.1667 0.0000 0.0000  plane waves:    1820
 k-point  4 :   0.2500 0.0000 0.0000  plane waves:    1820
 k-point  5 :   0.3333 0.0000 0.0000  plane waves:    1820
 k-point  6 :   0.4167 0.0000 0.0000  plane waves:    1817
 k-point  7 :   0.5000 0.0000 0.0000  plane waves:    1802
 k-point  8 :   0.0833 0.0833 0.0000  plane waves:    1828
 k-point  9 :   0.1667 0.0833 0.0000  plane waves:    1822
 k-point 10 :   0.2500 0.0833 0.0000  plane waves:    1813
 k-point 11 :   0.3333 0.0833 0.0000  plane waves:    1822
 k-point 12 :   0.4167 0.0833 0.0000  plane waves:    1815
 k-point 13 :   0.5000 0.0833 0.0000  plane waves:    1807
 k-point 14 :  -0.4167 0.0833 0.0000  plane waves:    1808
 k-point 15 :  -0.3333 0.0833 0.0000  plane waves:    1817
 k-point 16 :  -0.2500 0.0833 0.0000  plane waves:    1828
 k-point 17 :  -0.1667 0.0833 0.0000  plane waves:    1819
 k-point 18 :  -0.0833 0.0833 0.0000  plane waves:    1823
 k-point 19 :   0.1667 0.1667 0.0000  plane waves:    1816
 k-point 20 :   0.2500 0.1667 0.0000  plane waves:    1811
 k-point 21 :   0.3333 0.1667 0.0000  plane waves:    1821
 k-point 22 :   0.4167 0.1667 0.0000  plane waves:    1802
 k-point 23 :   0.5000 0.1667 0.0000  plane waves:    1807
 k-point 24 :  -0.4167 0.1667 0.0000  plane waves:    1802
 k-point 25 :  -0.3333 0.1667 0.0000  plane waves:    1800
 k-point 26 :  -0.2500 0.1667 0.0000  plane waves:    1815
 k-point 27 :  -0.1667 0.1667 0.0000  plane waves:    1817
 k-point 28 :   0.2500 0.2500 0.0000  plane waves:    1812
 k-point 29 :   0.3333 0.2500 0.0000  plane waves:    1806
 k-point 30 :   0.4167 0.2500 0.0000  plane waves:    1798
 k-point 31 :   0.5000 0.2500 0.0000  plane waves:    1804
 k-point 32 :  -0.4167 0.2500 0.0000  plane waves:    1814
 k-point 33 :  -0.3333 0.2500 0.0000  plane waves:    1804
 k-point 34 :  -0.2500 0.2500 0.0000  plane waves:    1812
 k-point 35 :   0.3333 0.3333 0.0000  plane waves:    1804
 k-point 36 :   0.4167 0.3333 0.0000  plane waves:    1795
 k-point 37 :   0.5000 0.3333 0.0000  plane waves:    1791
 k-point 38 :  -0.4167 0.3333 0.0000  plane waves:    1804
 k-point 39 :  -0.3333 0.3333 0.0000  plane waves:    1798
 k-point 40 :   0.4167 0.4167 0.0000  plane waves:    1772
 k-point 41 :   0.5000 0.4167 0.0000  plane waves:    1787
 k-point 42 :  -0.4167 0.4167 0.0000  plane waves:    1802
 k-point 43 :   0.5000 0.5000 0.0000  plane waves:    1772
 k-point 44 :   0.2500 0.1667 0.0833  plane waves:    1811
 k-point 45 :   0.3333 0.1667 0.0833  plane waves:    1819
 k-point 46 :   0.4167 0.1667 0.0833  plane waves:    1812
 k-point 47 :   0.5000 0.1667 0.0833  plane waves:    1805
 k-point 48 :  -0.4167 0.1667 0.0833  plane waves:    1800
 k-point 49 :   0.3333 0.2500 0.0833  plane waves:    1809
 k-point 50 :   0.4167 0.2500 0.0833  plane waves:    1809
 k-point 51 :   0.5000 0.2500 0.0833  plane waves:    1799
 k-point 52 :  -0.4167 0.2500 0.0833  plane waves:    1802
 k-point 53 :  -0.3333 0.2500 0.0833  plane waves:    1804
 k-point 54 :  -0.2500 0.2500 0.0833  plane waves:    1802
 k-point 55 :  -0.1667 0.2500 0.0833  plane waves:    1815
 k-point 56 :   0.4167 0.3333 0.0833  plane waves:    1798
 k-point 57 :   0.5000 0.3333 0.0833  plane waves:    1800
 k-point 58 :  -0.4167 0.3333 0.0833  plane waves:    1800
 k-point 59 :  -0.3333 0.3333 0.0833  plane waves:    1803
 k-point 60 :  -0.2500 0.3333 0.0833  plane waves:    1804
 k-point 61 :   0.5000 0.4167 0.0833  plane waves:    1794
 k-point 62 :  -0.4167 0.4167 0.0833  plane waves:    1801
 k-point 63 :  -0.3333 0.4167 0.0833  plane waves:    1801
 k-point 64 :  -0.4167 0.5000 0.0833  plane waves:    1794
 k-point 65 :   0.5000 0.3333 0.1667  plane waves:    1806
 k-point 66 :  -0.4167 0.3333 0.1667  plane waves:    1805
 k-point 67 :  -0.3333 0.3333 0.1667  plane waves:    1810
 k-point 68 :  -0.4167 0.4167 0.1667  plane waves:    1807
 k-point 69 :  -0.3333 0.4167 0.1667  plane waves:    1801
 k-point 70 :  -0.2500 0.4167 0.1667  plane waves:    1803
 k-point 71 :  -0.3333 0.5000 0.1667  plane waves:    1806
 k-point 72 :  -0.2500 0.5000 0.2500  plane waves:    1800

 maximum and minimum number of plane-waves per node :      1828     1772

 maximum number of plane-waves:      1828
 maximum index in each direction: 
   IXMAX=    8   IYMAX=    8   IZMAX=    8
   IXMIN=   -8   IYMIN=   -8   IZMIN=   -8

 WARNING: aliasing errors must be expected set NGX to  34 to avoid them
 WARNING: aliasing errors must be expected set NGY to  34 to avoid them
 WARNING: aliasing errors must be expected set NGZ to  34 to avoid them
 aliasing errors are usually negligible using standard VASP settings
 and one can safely disregard these warnings

 serial   3D FFT for wavefunctions
 parallel 3D FFT for charge:
    minimum data exchange during FFTs selected (reduces bandwidth)


 total amount of memory used by VASP on root node    47402. kBytes
========================================================================

   base      :      30000. kBytes
   nonl-proj :       8481. kBytes
   fftplans  :       1619. kBytes
   grid      :       3048. kBytes
   one-center:          6. kBytes
   wavefun   :       4248. kBytes
 
     INWAV:  cpu time    0.00: real time    0.00
 Broyden mixing: mesh for mixing (old mesh)
   NGX = 17   NGY = 17   NGZ = 17
  (NGX  = 56   NGY  = 56   NGZ  = 56)
  gives a total of   4913 points

 initial charge density was supplied:
 charge density of overlapping atoms calculated
 number of electron       8.0000000 magnetization 
 keeping initial charge density in first step


--------------------------------------------------------------------------------------------------------


 Maximum index for augmentation-charges         3290 (set IRDMAX)


--------------------------------------------------------------------------------------------------------


 First call to EWALD:  gamma=   0.469
 Maximum number of real-space cells 3x 3x 3
 Maximum number of reciprocal cells 3x 3x 3

 FEWALD executed in parallel
    FEWALD:  cpu time    0.00: real time    0.00


----------------------------------------- Iteration    1(   1)  ---------------------------------------


    POTLOK:  cpu time    0.02: real time    0.03
    SETDIJ:  cpu time    0.00: real time    0.00
     EDDAV:  cpu time    0.42: real time    0.44
       DOS:  cpu time    0.00: real time    0.00
    --------------------------------------------
      LOOP:  cpu time    0.45: real time    0.47

 eigenvalue-minimisations  :  1152
 total energy-change (2. order) : 0.8151813E+01  (-0.3301868E+03)
 number of electron       8.0000000 magnetization 
 augmentation part        8.0000000 magnetization 

 Free energy of the ion-electron system (eV)
  ---------------------------------------------------
  alpha Z        PSCENC =         2.48803036
  Ewald energy   TEWEN  =      -206.69693788
  -Hartree energ DENC   =       -15.98444094
  -exchange      EXHF   =         0.00000000
  -V(xc)+E(xc)   XCENC  =       -19.67630201
  PAW double counting   =        65.95520812      -30.76852678
  entropy T*S    EENTRO =        -0.00172411
  eigenvalues    EBANDS =         6.70338745
  atomic energy  EATOM  =       206.13311910
  ---------------------------------------------------
  free energy    TOTEN  =         8.15181331 eV

  energy without entropy =        8.15353742  energy(sigma->0) =        8.15267537


--------------------------------------------------------------------------------------------------------




----------------------------------------- Iteration    1(   2)  ---------------------------------------


     EDDAV:  cpu time    0.60: real time    0.60
       DOS:  cpu time    0.00: real time    0.00
    --------------------------------------------
      LOOP:  cpu time    0.60: real time    0.61

 eigenvalue-minimisations  :  1736
 total energy-change (2. order) :-0.1801246E+02  (-0.1730837E+02)
 number of electron       8.0000000 magnetization 
 augmentation part        8.0000000 magnetization 

 Free energy of the ion-electron system (eV)
  ---------------------------------------------------
  alpha Z        PSCENC =         2.48803036
  Ewald energy   TEWEN  =      -206.69693788
  -Hartree energ DENC   =       -15.98444094
  -exchange      EXHF   =         0.00000000
  -V(xc)+E(xc)   XCENC  =       -19.67630201
  PAW double counting   =        65.95520812      -30.76852678
  entropy T*S    EENTRO =        -0.00001181
  eigenvalues    EBANDS =       -11.31078434
  atomic energy  EATOM  =       206.13311910
  ---------------------------------------------------
  free energy    TOTEN  =        -9.86064618 eV

  energy without entropy =       -9.86063437  energy(sigma->0) =       -9.86064027


--------------------------------------------------------------------------------------------------------




----------------------------------------- Iteration    1(   3)  ---------------------------------------


     EDDAV:  cpu time    0.54: real time    0.56
       DOS:  cpu time    0.00: real time    0.00
    --------------------------------------------
      LOOP:  cpu time    0.54: real time    0.56

 eigenvalue-minimisations  :  1552
 total energy-change (2. order) :-0.3355209E+00  (-0.3355181E+00)
 number of electron       8.0000000 magnetization 
 augmentation part        8.0000000 magnetization 

 Free energy of the ion-electron system (eV)
  ---------------------------------------------------
  alpha Z        PSCENC =         2.48803036
  Ewald energy   TEWEN  =      -206.69693788
  -Hartree energ DENC   =       -15.98444094
  -exchange      EXHF   =         0.00000000
  -V(xc)+E(xc)   XCENC  =       -19.67630201
  PAW double counting   =        65.95520812      -30.76852678
  entropy T*S    EENTRO =        -0.00000320
  eigenvalues    EBANDS =       -11.64631382
  atomic energy  EATOM  =       206.13311910
  ---------------------------------------------------
  free energy    TOTEN  =       -10.19616706 eV

  energy without entropy =      -10.19616385  energy(sigma->0) =      -10.19616546


--------------------------------------------------------------------------------------------------------




----------------------------------------- Iteration    1(   4)  ---------------------------------------


     EDDAV:  cpu time    0.61: real time    0.63
       DOS:  cpu time    0.00: real time    0.00
    --------------------------------------------
      LOOP:  cpu time    0.61: real time    0.63

 eigenvalue-minimisations  :  1800
 total energy-change (2. order) :-0.1718570E-02  (-0.1718570E-02)
 number of electron       8.0000000 magnetization 
 augmentation part        8.0000000 magnetization 

 Free energy of the ion-electron system (eV)
  ---------------------------------------------------
  alpha Z        PSCENC =         2.48803036
  Ewald energy   TEWEN  =      -206.69693788
  -Hartree energ DENC   =       -15.98444094
  -exchange      EXHF   =         0.00000000
  -V(xc)+E(xc)   XCENC  =       -19.67630201
  PAW double counting   =        65.95520812      -30.76852678
  entropy T*S    EENTRO =        -0.00000318
  eigenvalues    EBANDS =       -11.64803242
  atomic energy  EATOM  =       206.13311910
  ---------------------------------------------------
  free energy    TOTEN  =       -10.19788563 eV

  energy without entropy =      -10.19788245  energy(sigma->0) =      -10.19788404


--------------------------------------------------------------------------------------------------------




----------------------------------------- Iteration    1(   5)  ---------------------------------------


     EDDAV:  cpu time    0.54: real time    0.56
       DOS:  cpu time    0.00: real time    0.00
    CHARGE:  cpu time    0.02: real time    0.03
    MIXING:  cpu time    0.00: real time    0.00
    --------------------------------------------
      LOOP:  cpu time    0.57: real time    0.59

 eigenvalue-minimisations  :  1568
 total energy-change (2. order) :-0.2096963E-05  (-0.2096818E-05)
 number of electron       8.0000000 magnetization 
 augmentation part       -0.4685233 magnetization 

 Broyden mixing:
  rms(total) = 0.23176E+00    rms(broyden)= 0.23176E+00
  rms(prec ) = 0.61924E+00
  weight for this iteration     100.00

 Free energy of the ion-electron system (eV)
  ---------------------------------------------------
  alpha Z        PSCENC =         2.48803036
  Ewald energy   TEWEN  =      -206.69693788
  -Hartree energ DENC   =       -15.98444094
  -exchange      EXHF   =         0.00000000
  -V(xc)+E(xc)   XCENC  =       -19.67630201
  PAW double counting   =        65.95520812      -30.76852678
  entropy T*S    EENTRO =        -0.00000318
  eigenvalues    EBANDS =       -11.64803452
  atomic energy  EATOM  =       206.13311910
  ---------------------------------------------------
  free energy    TOTEN  =       -10.19788772 eV

  energy without entropy =      -10.19788455  energy(sigma->0) =      -10.19788614


--------------------------------------------------------------------------------------------------------




----------------------------------------- Iteration    1(   6)  ---------------------------------------


    POTLOK:  cpu time    0.02: real time    0.03
    SETDIJ:  cpu time    0.00: real time    0.00
     EDDAV:  cpu time    0.50: real time    0.52
       DOS:  cpu time    0.00: real time    0.00
    CHARGE:  cpu time    0.02: real time    0.03
    MIXING:  cpu time    0.00: real time    0.00
    --------------------------------------------
      LOOP:  cpu time    0.55: real time    0.58

 eigenvalue-minimisations  :  1400
 total energy-change (2. order) : 0.3525636E-01  (-0.1678595E-02)
 number of electron       8.0000000 magnetization 
 augmentation part       -0.4665878 magnetization 

 Broyden mixing:
  rms(total) = 0.14308E+00    rms(broyden)= 0.14308E+00
  rms(prec ) = 0.38405E+00
  weight for this iteration     100.00

 eigenvalues of (default mixing * dielectric matrix)
  average eigenvalue GAMMA=   2.5984
  2.5984

 Free energy of the ion-electron system (eV)
  ---------------------------------------------------
  alpha Z        PSCENC =         2.48803036
  Ewald energy   TEWEN  =      -206.69693788
  -Hartree energ DENC   =       -16.93309753
  -exchange      EXHF   =         0.00000000
  -V(xc)+E(xc)   XCENC  =       -19.53292316
  PAW double counting   =        66.85202444      -31.68557867
  entropy T*S    EENTRO =        -0.00000263
  eigenvalues    EBANDS =       -10.78726539
  atomic energy  EATOM  =       206.13311910
  ---------------------------------------------------
  free energy    TOTEN  =       -10.16263136 eV

  energy without entropy =      -10.16262873  energy(sigma->0) =      -10.16263005


--------------------------------------------------------------------------------------------------------




----------------------------------------- Iteration    1(   7)  ---------------------------------------


    POTLOK:  cpu time    0.02: real time    0.03
    SETDIJ:  cpu time    0.00: real time    0.00
     EDDAV:  cpu time    0.50: real time    0.51
       DOS:  cpu time    0.00: real time    0.00
    CHARGE:  cpu time    0.03: real time    0.03
    MIXING:  cpu time    0.00: real time    0.00
    --------------------------------------------
      LOOP:  cpu time    0.56: real time    0.57

 eigenvalue-minimisations  :  1408
 total energy-change (2. order) : 0.2227093E-01  (-0.4577584E-02)
 number of electron       8.0000000 magnetization 
 augmentation part       -0.4646929 magnetization 

 Broyden mixing:
  rms(total) = 0.97064E-02    rms(broyden)= 0.97064E-02
  rms(prec ) = 0.23765E-01
  weight for this iteration     100.00

 eigenvalues of (default mixing * dielectric matrix)
  average eigenvalue GAMMA=   2.5548
  2.5548  2.5548

 Free energy of the ion-electron system (eV)
  ---------------------------------------------------
  alpha Z        PSCENC =         2.48803036
  Ewald energy   TEWEN  =      -206.69693788
  -Hartree energ DENC   =       -18.71250841
  -exchange      EXHF   =         0.00000000
  -V(xc)+E(xc)   XCENC  =       -19.25753886
  PAW double counting   =        67.84800163      -32.70222470
  entropy T*S    EENTRO =        -0.00000263
  eigenvalues    EBANDS =        -9.24029904
  atomic energy  EATOM  =       206.13311910
  ---------------------------------------------------
  free energy    TOTEN  =       -10.14036043 eV

  energy without entropy =      -10.14035780  energy(sigma->0) =      -10.14035911


--------------------------------------------------------------------------------------------------------




----------------------------------------- Iteration    1(   8)  ---------------------------------------


    POTLOK:  cpu time    0.02: real time    0.03
    SETDIJ:  cpu time    0.00: real time    0.00
     EDDAV:  cpu time    0.46: real time    0.47
       DOS:  cpu time    0.00: real time    0.00
    CHARGE:  cpu time    0.03: real time    0.03
    MIXING:  cpu time    0.00: real time    0.00
    --------------------------------------------
      LOOP:  cpu time    0.51: real time    0.53

 eigenvalue-minimisations  :  1248
 total energy-change (2. order) :-0.1375393E-02  (-0.2106365E-03)
 number of electron       8.0000000 magnetization 
 augmentation part       -0.4650929 magnetization 

 Broyden mixing:
  rms(total) = 0.26534E-02    rms(broyden)= 0.26534E-02
  rms(prec ) = 0.90457E-02
  weight for this iteration     100.00

 eigenvalues of (default mixing * dielectric matrix)
  average eigenvalue GAMMA=   2.2001
  1.1316  2.4761  2.9926

 Free energy of the ion-electron system (eV)
  ---------------------------------------------------
  alpha Z        PSCENC =         2.48803036
  Ewald energy   TEWEN  =      -206.69693788
  -Hartree energ DENC   =       -18.69133861
  -exchange      EXHF   =         0.00000000
  -V(xc)+E(xc)   XCENC  =       -19.26177960
  PAW double counting   =        67.31554897      -32.15615458
  entropy T*S    EENTRO =        -0.00000262
  eigenvalues    EBANDS =        -9.27222096
  atomic energy  EATOM  =       206.13311910
  ---------------------------------------------------
  free energy    TOTEN  =       -10.14173582 eV

  energy without entropy =      -10.14173320  energy(sigma->0) =      -10.14173451


--------------------------------------------------------------------------------------------------------




----------------------------------------- Iteration    1(   9)  ---------------------------------------


    POTLOK:  cpu time    0.02: real time    0.03
    SETDIJ:  cpu time    0.00: real time    0.00
     EDDAV:  cpu time    0.58: real time    0.59
       DOS:  cpu time    0.00: real time    0.00
    CHARGE:  cpu time    0.02: real time    0.03
    MIXING:  cpu time    0.00: real time    0.00
    --------------------------------------------
      LOOP:  cpu time    0.63: real time    0.65

 eigenvalue-minimisations  :  1664
 total energy-change (2. order) :-0.1818104E-03  (-0.2380834E-04)
 number of electron       8.0000000 magnetization 
 augmentation part       -0.4651333 magnetization 

 Broyden mixing:
  rms(total) = 0.11846E-02    rms(broyden)= 0.11846E-02
  rms(prec ) = 0.30683E-02
  weight for this iteration     100.00

 eigenvalues of (default mixing * dielectric matrix)
  average eigenvalue GAMMA=   2.3065
  0.9745  3.3076  2.4720  2.4720

 Free energy of the ion-electron system (eV)
  ---------------------------------------------------
  alpha Z        PSCENC =         2.48803036
  Ewald energy   TEWEN  =      -206.69693788
  -Hartree energ DENC   =       -18.74629813
  -exchange      EXHF   =         0.00000000
  -V(xc)+E(xc)   XCENC  =       -19.25439432
  PAW double counting   =        67.22741896      -32.06607076
  entropy T*S    EENTRO =        -0.00000259
  eigenvalues    EBANDS =        -9.22678237
  atomic energy  EATOM  =       206.13311910
  ---------------------------------------------------
  free energy    TOTEN  =       -10.14191763 eV

  energy without entropy =      -10.14191504  energy(sigma->0) =      -10.14191634


--------------------------------------------------------------------------------------------------------




----------------------------------------- Iteration    1(  10)  ---------------------------------------


    POTLOK:  cpu time    0.02: real time    0.03
    SETDIJ:  cpu time    0.00: real time    0.00
     EDDAV:  cpu time    0.45: real time    0.46
       DOS:  cpu time    0.00: real time    0.00
    CHARGE:  cpu time    0.03: real time    0.03
    MIXING:  cpu time    0.00: real time    0.00
    --------------------------------------------
      LOOP:  cpu time    0.50: real time    0.52

 eigenvalue-minimisations  :  1216
 total energy-change (2. order) :-0.1358103E-04  (-0.2748845E-05)
 number of electron       8.0000000 magnetization 
 augmentation part       -0.4650229 magnetization 

 Broyden mixing:
  rms(total) = 0.12558E-03    rms(broyden)= 0.12558E-03
  rms(prec ) = 0.37824E-03
  weight for this iteration     100.00

 eigenvalues of (default mixing * dielectric matrix)
  average eigenvalue GAMMA=   2.1470
  3.3883  2.7350  2.1914  0.9646  1.4557

 Free energy of the ion-electron system (eV)
  ---------------------------------------------------
  alpha Z        PSCENC =         2.48803036
  Ewald energy   TEWEN  =      -206.69693788
  -Hartree energ DENC   =       -18.75994483
  -exchange      EXHF   =         0.00000000
  -V(xc)+E(xc)   XCENC  =       -19.25380553
  PAW double counting   =        67.27440087      -32.11484078
  entropy T*S    EENTRO =        -0.00000255
  eigenvalues    EBANDS =        -9.21194996
  atomic energy  EATOM  =       206.13311910
  ---------------------------------------------------
  free energy    TOTEN  =       -10.14193121 eV

  energy without entropy =      -10.14192866  energy(sigma->0) =      -10.14192994


--------------------------------------------------------------------------------------------------------




----------------------------------------- Iteration    1(  11)  ---------------------------------------


    POTLOK:  cpu time    0.02: real time    0.03
    SETDIJ:  cpu time    0.00: real time    0.00
     EDDAV:  cpu time    0.62: real time    0.64
       DOS:  cpu time    0.00: real time    0.00
    CHARGE:  cpu time    0.03: real time    0.03
    MIXING:  cpu time    0.00: real time    0.00
    --------------------------------------------
      LOOP:  cpu time    0.67: real time    0.70

 eigenvalue-minimisations  :  1816
 total energy-change (2. order) : 0.5517093E-06  (-0.3579832E-07)
 number of electron       8.0000000 magnetization 
 augmentation part       -0.4650344 magnetization 

 Broyden mixing:
  rms(total) = 0.54858E-04    rms(broyden)= 0.54857E-04
  rms(prec ) = 0.95723E-04
  weight for this iteration     100.00

 eigenvalues of (default mixing * dielectric matrix)
  average eigenvalue GAMMA=   2.1777
  3.4363  2.8187  2.6113  2.1943  0.9793  1.0264

 Free energy of the ion-electron system (eV)
  ---------------------------------------------------
  alpha Z        PSCENC =         2.48803036
  Ewald energy   TEWEN  =      -206.69693788
  -Hartree energ DENC   =       -18.75740053
  -exchange      EXHF   =         0.00000000
  -V(xc)+E(xc)   XCENC  =       -19.25406717
  PAW double counting   =        67.26517894      -32.10527253
  entropy T*S    EENTRO =        -0.00000256
  eigenvalues    EBANDS =        -9.21457840
  atomic energy  EATOM  =       206.13311910
  ---------------------------------------------------
  free energy    TOTEN  =       -10.14193066 eV

  energy without entropy =      -10.14192811  energy(sigma->0) =      -10.14192938


--------------------------------------------------------------------------------------------------------




----------------------------------------- Iteration    1(  12)  ---------------------------------------


    POTLOK:  cpu time    0.02: real time    0.03
    SETDIJ:  cpu time    0.00: real time    0.00
     EDDAV:  cpu time    0.44: real time    0.45
       DOS:  cpu time    0.00: real time    0.00
    CHARGE:  cpu time    0.02: real time    0.03
    MIXING:  cpu time    0.00: real time    0.00
    --------------------------------------------
      LOOP:  cpu time    0.49: real time    0.51

 eigenvalue-minimisations  :  1184
 total energy-change (2. order) : 0.3235800E-07  (-0.8809564E-08)
 number of electron       8.0000000 magnetization 
 augmentation part       -0.4650343 magnetization 

 Broyden mixing:
  rms(total) = 0.52066E-05    rms(broyden)= 0.52066E-05
  rms(prec ) = 0.15331E-04
  weight for this iteration     100.00

 eigenvalues of (default mixing * dielectric matrix)
  average eigenvalue GAMMA=   2.0002
  3.4399  2.8044  2.4822  2.3096  0.9661  0.9995  0.9995

 Free energy of the ion-electron system (eV)
  ---------------------------------------------------
  alpha Z        PSCENC =         2.48803036
  Ewald energy   TEWEN  =      -206.69693788
  -Hartree energ DENC   =       -18.75769165
  -exchange      EXHF   =         0.00000000
  -V(xc)+E(xc)   XCENC  =       -19.25398953
  PAW double counting   =        67.26582840      -32.10583026
  entropy T*S    EENTRO =        -0.00000256
  eigenvalues    EBANDS =        -9.21445661
  atomic energy  EATOM  =       206.13311910
  ---------------------------------------------------
  free energy    TOTEN  =       -10.14193063 eV

  energy without entropy =      -10.14192807  energy(sigma->0) =      -10.14192935


--------------------------------------------------------------------------------------------------------




----------------------------------------- Iteration    1(  13)  ---------------------------------------


    POTLOK:  cpu time    0.02: real time    0.03
    SETDIJ:  cpu time    0.00: real time    0.00
     EDDAV:  cpu time    0.65: real time    0.67
       DOS:  cpu time    0.00: real time    0.00
    CHARGE:  cpu time    0.02: real time    0.03
    MIXING:  cpu time    0.00: real time    0.00
    --------------------------------------------
      LOOP:  cpu time    0.70: real time    0.73

 eigenvalue-minimisations  :  1920
 total energy-change (2. order) : 0.2009949E-07  (-0.8818255E-10)
 number of electron       8.0000000 magnetization 
 augmentation part       -0.4650351 magnetization 

 Broyden mixing:
  rms(total) = 0.22004E-05    rms(broyden)= 0.22004E-05
  rms(prec ) = 0.30280E-05
  weight for this iteration     100.00

 eigenvalues of (default mixing * dielectric matrix)
  average eigenvalue GAMMA=   2.0941
  3.4376  2.8990  2.5825  2.5825  2.2531  1.0438  0.9910  0.9633

 Free energy of the ion-electron system (eV)
  ---------------------------------------------------
  alpha Z        PSCENC =         2.48803036
  Ewald energy   TEWEN  =      -206.69693788
  -Hartree energ DENC   =       -18.75760357
  -exchange      EXHF   =         0.00000000
  -V(xc)+E(xc)   XCENC  =       -19.25399635
  PAW double counting   =        67.26538589      -32.10537435
  entropy T*S    EENTRO =        -0.00000256
  eigenvalues    EBANDS =        -9.21455126
  atomic energy  EATOM  =       206.13311910
  ---------------------------------------------------
  free energy    TOTEN  =       -10.14193061 eV

  energy without entropy =      -10.14192805  energy(sigma->0) =      -10.14192933


--------------------------------------------------------------------------------------------------------




----------------------------------------- Iteration    1(  14)  ---------------------------------------


    POTLOK:  cpu time    0.02: real time    0.03
    SETDIJ:  cpu time    0.00: real time    0.00
     EDDAV:  cpu time    0.43: real time    0.44
       DOS:  cpu time    0.00: real time    0.00
    CHARGE:  cpu time    0.02: real time    0.03
    MIXING:  cpu time    0.00: real time    0.00
    --------------------------------------------
      LOOP:  cpu time    0.48: real time    0.50

 eigenvalue-minimisations  :  1144
 total energy-change (2. order) :-0.5875052E-08  (-0.1161049E-10)
 number of electron       8.0000000 magnetization 
 augmentation part       -0.4650350 magnetization 

 Broyden mixing:
  rms(total) = 0.35665E-06    rms(broyden)= 0.35665E-06
  rms(prec ) = 0.84260E-06
  weight for this iteration     100.00

 eigenvalues of (default mixing * dielectric matrix)
  average eigenvalue GAMMA=   1.9942
  3.4526  2.8994  2.6860  2.5058  2.2694  0.9587  0.9878  1.1082  1.0803

 Free energy of the ion-electron system (eV)
  ---------------------------------------------------
  alpha Z        PSCENC =         2.48803036
  Ewald energy   TEWEN  =      -206.69693788
  -Hartree energ DENC   =       -18.75760600
  -exchange      EXHF   =         0.00000000
  -V(xc)+E(xc)   XCENC  =       -19.25399627
  PAW double counting   =        67.26533711      -32.10533138
  entropy T*S    EENTRO =        -0.00000256
  eigenvalues    EBANDS =        -9.21454310
  atomic energy  EATOM  =       206.13311910
  ---------------------------------------------------
  free energy    TOTEN  =       -10.14193062 eV

  energy without entropy =      -10.14192806  energy(sigma->0) =      -10.14192934


--------------------------------------------------------------------------------------------------------




----------------------------------------- Iteration    1(  15)  ---------------------------------------


    POTLOK:  cpu time    0.02: real time    0.03
    SETDIJ:  cpu time    0.00: real time    0.00
     EDDAV:  cpu time    0.30: real time    0.31
       DOS:  cpu time    0.00: real time    0.00
    CHARGE:  cpu time    0.02: real time    0.03
    MIXING:  cpu time    0.00: real time    0.00
    --------------------------------------------
      LOOP:  cpu time    0.36: real time    0.37

 eigenvalue-minimisations  :   672
 total energy-change (2. order) : 0.4173728E-09  (-0.1524289E-12)
 number of electron       8.0000000 magnetization 
 augmentation part       -0.4650350 magnetization 

 Broyden mixing:
  rms(total) = 0.74518E-07    rms(broyden)= 0.74514E-07
  rms(prec ) = 0.13119E-06
  weight for this iteration     100.00

 eigenvalues of (default mixing * dielectric matrix)
  average eigenvalue GAMMA=   2.0462
  3.4490  2.9409  2.7988  2.2909  2.4896  2.4896  0.9598  1.0227  1.0227  0.9977

 Free energy of the ion-electron system (eV)
  ---------------------------------------------------
  alpha Z        PSCENC =         2.48803036
  Ewald energy   TEWEN  =      -206.69693788
  -Hartree energ DENC   =       -18.75760396
  -exchange      EXHF   =         0.00000000
  -V(xc)+E(xc)   XCENC  =       -19.25399669
  PAW double counting   =        67.26532617      -32.10532017
  entropy T*S    EENTRO =        -0.00000256
  eigenvalues    EBANDS =        -9.21454498
  atomic energy  EATOM  =       206.13311910
  ---------------------------------------------------
  free energy    TOTEN  =       -10.14193062 eV

  energy without entropy =      -10.14192806  energy(sigma->0) =      -10.14192934


--------------------------------------------------------------------------------------------------------




----------------------------------------- Iteration    1(  16)  ---------------------------------------


    POTLOK:  cpu time    0.02: real time    0.03
    SETDIJ:  cpu time    0.00: real time    0.00
     EDDAV:  cpu time    0.28: real time    0.28
       DOS:  cpu time    0.00: real time    0.00
    --------------------------------------------
      LOOP:  cpu time    0.30: real time    0.31

 eigenvalue-minimisations  :   576
 total energy-change (2. order) : 0.8114398E-10  ( 0.1235199E-13)
 number of electron       8.0000000 magnetization 
 augmentation part       -0.4650350 magnetization 

 Free energy of the ion-electron system (eV)
  ---------------------------------------------------
  alpha Z        PSCENC =         2.48803036
  Ewald energy   TEWEN  =      -206.69693788
  -Hartree energ DENC   =       -18.75760356
  -exchange      EXHF   =         0.00000000
  -V(xc)+E(xc)   XCENC  =       -19.25399673
  PAW double counting   =        67.26533029      -32.10532418
  entropy T*S    EENTRO =        -0.00000256
  eigenvalues    EBANDS =        -9.21454545
  atomic energy  EATOM  =       206.13311910
  ---------------------------------------------------
  free energy    TOTEN  =       -10.14193062 eV

  energy without entropy =      -10.14192806  energy(sigma->0) =      -10.14192934


--------------------------------------------------------------------------------------------------------




 average (electrostatic) potential at core
  the test charge radii are     0.9892
  (the norm of the test charge is              1.0000)
       1 -86.2900       2 -86.2900
 
 
 
 E-fermi :   3.3259     XC(G=0):  -8.2702     alpha+bet : -8.8634


 k-point     1 :       0.0000    0.0000    0.0000
  band No.  band energies     occupation 
      1      -6.9792      2.00000
      2       3.1687      1.99629
      3       3.1687      1.99629
      4       3.1687      1.99629
      5       3.4521      0.01274
      6       5.5580      0.00000
      7       5.5580      0.00000
      8       5.5580      0.00000

 k-point     2 :       0.0833    0.0000    0.0000
  band No.  band energies     occupation 
      1      -6.9098      2.00000
      2       2.0581      2.00000
      3       3.0657      1.99994
      4       3.0657      1.99994
      5       4.1982      0.00000
      6       5.7110      0.00000
      7       5.7110      0.00000
      8       5.8164      0.00000

 k-point     3 :       0.1667    0.0000    0.0000
  band No.  band energies     occupation 
      1      -6.7049      2.00000
      2       0.7800      2.00000
      3       2.8350      2.00000
      4       2.8350      2.00000
      5       4.3122      0.00000
      6       6.0517      0.00000
      7       6.0517      0.00000
      8       6.7547      0.00000

 k-point     4 :       0.2500    0.0000    0.0000
  band No.  band energies     occupation 
      1      -6.3760      2.00000
      2      -0.4332      2.00000
      3       2.5909      2.00000
      4       2.5909      2.00000
      5       4.1132      0.00000
      6       6.3577      0.00000
      7       6.3577      0.00000
      8       7.9875      0.00000

 k-point     5 :       0.3333    0.0000    0.0000
  band No.  band energies     occupation 
      1      -5.9539      2.00000
      2      -1.5079      2.00000
      3       2.3945      2.00000
      4       2.3945      2.00000
      5       3.9014      0.00000
      6       6.4931      0.00000
      7       6.4931      0.00000
      8       9.2456      0.00000

 k-point     6 :       0.4167    0.0000    0.0000
  band No.  band energies     occupation 
      1      -5.5245      2.00000
      2      -2.3361      2.00000
      3       2.2708      2.00000
      4       2.2708      2.00000
      5       3.7580      0.00000
      6       6.5035      0.00000
      7       6.5035      0.00000
      8      10.1559      0.00000

 k-point     7 :       0.5000    0.0000    0.0000
  band No.  band energies     occupation 
      1      -5.3129      2.00000
      2      -2.6818      2.00000
      3       2.2288      2.00000
      4       2.2288      2.00000
      5       3.7082      0.00000
      6       6.4933      0.00000
      7       6.4933      0.00000
      8      10.3147      0.00000

 k-point     8 :       0.0833    0.0833    0.0000
  band No.  band energies     occupation 
      1      -6.8865      2.00000
      2       1.9956      2.00000
      3       2.8748      2.00000
      4       2.8748      2.00000
      5       4.5970      0.00000
      6       5.3541      0.00000
      7       5.9670      0.00000
      8       5.9670      0.00000

 k-point     9 :       0.1667    0.0833    0.0000
  band No.  band energies     occupation 
      1      -6.7262      2.00000
      2       1.0320      2.00000
      3       2.6063      2.00000
      4       2.6641      2.00000
      5       4.9036      0.00000
      6       5.4193      0.00000
      7       6.3763      0.00000
      8       6.6217      0.00000

 k-point    10 :       0.2500    0.0833    0.0000
  band No.  band energies     occupation 
      1      -6.4368      2.00000
      2      -0.1136      2.00000
      3       2.3605      2.00000
      4       2.3857      2.00000
      5       4.7460      0.00000
      6       5.8305      0.00000
      7       6.7324      0.00000
      8       7.5328      0.00000

 k-point    11 :       0.3333    0.0833    0.0000
  band No.  band energies     occupation 
      1      -6.0403      2.00000
      2      -1.1999      2.00000
      3       2.0967      2.00000
      4       2.1860      2.00000
      5       4.5280      0.00000
      6       6.1763      0.00000
      7       6.8819      0.00000
      8       8.3699      0.00000

 k-point    12 :       0.4167    0.0833    0.0000
  band No.  band energies     occupation 
      1      -5.5965      2.00000
      2      -2.1079      2.00000
      3       1.8620      2.00000
      4       2.1014      2.00000
      5       4.3572      0.00000
      6       6.3329      0.00000
      7       6.8463      0.00000
      8       9.2739      0.00000

 k-point    13 :       0.5000    0.0833    0.0000
  band No.  band energies     occupation 
      1      -5.2761      2.00000
      2      -2.6427      2.00000
      3       1.7102      2.00000
      4       2.1108      2.00000
      5       4.2673      0.00000
      6       6.4137      0.00000
      7       6.7457      0.00000
      8      10.1091      0.00000

 k-point    14 :      -0.4167    0.0833    0.0000
  band No.  band energies     occupation 
      1      -5.3519      2.00000
      2      -2.5232      2.00000
      3       1.6551      2.00000
      4       2.2103      2.00000
      5       4.2698      0.00000
      6       6.5090      0.00000
      7       6.6510      0.00000
      8      10.1214      0.00000

 k-point    15 :      -0.3333    0.0833    0.0000
  band No.  band energies     occupation 
      1      -5.7442      2.00000
      2      -1.8310      2.00000
      3       1.7052      2.00000
      4       2.3887      2.00000
      5       4.3627      0.00000
      6       6.5493      0.00000
      7       6.6045      0.00000
      8       9.2449      0.00000

 k-point    16 :      -0.2500    0.0833    0.0000
  band No.  band energies     occupation 
      1      -6.1832      2.00000
      2      -0.8513      2.00000
      3       1.8667      2.00000
      4       2.6252      2.00000
      5       4.5263      0.00000
      6       6.3599      0.00000
      7       6.5687      0.00000
      8       8.2194      0.00000

 k-point    17 :      -0.1667    0.0833    0.0000
  band No.  band energies     occupation 
      1      -6.5475      2.00000
      2       0.2542      2.00000
      3       2.1478      2.00000
      4       2.8779      2.00000
      5       4.6910      0.00000
      6       6.0463      0.00000
      7       6.2250      0.00000
      8       7.3131      0.00000

 k-point    18 :      -0.0833    0.0833    0.0000
  band No.  band energies     occupation 
      1      -6.7950      2.00000
      2       1.3283      2.00000
      3       2.5739      2.00000
      4       3.0627      1.99995
      5       4.6102      0.00000
      6       5.7563      0.00000
      7       5.8116      0.00000
      8       6.4786      0.00000

 k-point    19 :       0.1667    0.1667    0.0000
  band No.  band energies     occupation 
      1      -6.6103      2.00000
      2       0.7206      2.00000
      3       2.3155      2.00000
      4       2.3155      2.00000
      5       4.9186      0.00000
      6       5.6211      0.00000
      7       6.8674      0.00000
      8       6.8674      0.00000

 k-point    20 :       0.2500    0.1667    0.0000
  band No.  band energies     occupation 
      1      -6.3625      2.00000
      2      -0.0863      2.00000
      3       1.9977      2.00000
      4       2.0583      2.00000
      5       4.9168      0.00000
      6       5.7643      0.00000
      7       7.3285      0.00000
      8       7.3826      0.00000

 k-point    21 :       0.3333    0.1667    0.0000
  band No.  band energies     occupation 
      1      -5.9981      2.00000
      2      -1.0329      2.00000
      3       1.6082      2.00000
      4       1.8816      2.00000
      5       5.0016      0.00000
      6       6.0219      0.00000
      7       7.5538      0.00000
      8       7.5730      0.00000

 k-point    22 :       0.4167    0.1667    0.0000
  band No.  band energies     occupation 
      1      -5.5577      2.00000
      2      -1.9228      2.00000
      3       1.2492      2.00000
      4       1.8048      2.00000
      5       4.9264      0.00000
      6       6.4220      0.00000
      7       7.5637      0.00000
      8       7.9108      0.00000

 k-point    23 :       0.5000    0.1667    0.0000
  band No.  band energies     occupation 
      1      -5.1625      2.00000
      2      -2.5715      2.00000
      3       0.9836      2.00000
      4       1.8329      2.00000
      5       4.8613      0.00000
      6       6.5911      0.00000
      7       7.4213      0.00000
      8       8.8069      0.00000

 k-point    24 :      -0.4167    0.1667    0.0000
  band No.  band energies     occupation 
      1      -5.0925      2.00000
      2      -2.6742      2.00000
      3       0.8396      2.00000
      4       1.9611      2.00000
      5       4.8710      0.00000
      6       6.6896      0.00000
      7       7.2450      0.00000
      8       9.8052      0.00000

 k-point    25 :      -0.3333    0.1667    0.0000
  band No.  band energies     occupation 
      1      -5.4233      2.00000
      2      -2.1566      2.00000
      3       0.8393      2.00000
      4       2.1746      2.00000
      5       4.9550      0.00000
      6       6.8110      0.00000
      7       7.0411      0.00000
      8       9.0313      0.00000

 k-point    26 :      -0.2500    0.1667    0.0000
  band No.  band energies     occupation 
      1      -5.8684      2.00000
      2      -1.3384      2.00000
      3       1.0166      2.00000
      4       2.4442      2.00000
      5       5.0708      0.00000
      6       6.7418      0.00000
      7       6.8360      0.00000
      8       8.0869      0.00000

 k-point    27 :      -0.1667    0.1667    0.0000
  band No.  band energies     occupation 
      1      -6.2619      2.00000
      2      -0.4735      2.00000
      3       1.4364      2.00000
      4       2.7126      2.00000
      5       5.0736      0.00000
      6       6.3463      0.00000
      7       6.4792      0.00000
      8       7.6776      0.00000

 k-point    28 :       0.2500    0.2500    0.0000
  band No.  band energies     occupation 
      1      -6.1558      2.00000
      2      -0.5133      2.00000
      3       1.7847      2.00000
      4       1.7847      2.00000
      5       4.4967      0.00000
      6       5.8123      0.00000
      7       7.9539      0.00000
      8       7.9539      0.00000

 k-point    29 :       0.3333    0.2500    0.0000
  band No.  band energies     occupation 
      1      -5.8268      2.00000
      2      -1.2068      2.00000
      3       1.4339      2.00000
      4       1.5915      2.00000
      5       4.5617      0.00000
      6       5.7109      0.00000
      7       8.1348      0.00000
      8       8.3892      0.00000

 k-point    30 :       0.4167    0.2500    0.0000
  band No.  band energies     occupation 
      1      -5.4027      2.00000
      2      -1.9581      2.00000
      3       0.9600      2.00000
      4       1.5016      2.00000
      5       4.7376      0.00000
      6       6.0898      0.00000
      7       7.9855      0.00000
      8       8.4984      0.00000

 k-point    31 :       0.5000    0.2500    0.0000
  band No.  band energies     occupation 
      1      -4.9646      2.00000
      2      -2.6071      2.00000
      3       0.5465      2.00000
      4       1.5223      2.00000
      5       4.7854      0.00000
      6       6.9719      0.00000
      7       7.9118      0.00000
      8       8.3707      0.00000

 k-point    32 :      -0.4167    0.2500    0.0000
  band No.  band energies     occupation 
      1      -4.7606      2.00000
      2      -2.8735      2.00000
      3       0.2856      2.00000
      4       1.6505      2.00000
      5       4.8667      0.00000
      6       7.5324      0.00000
      7       8.1351      0.00000
      8       8.5175      0.00000

 k-point    33 :      -0.3333    0.2500    0.0000
  band No.  band energies     occupation 
      1      -5.0152      2.00000
      2      -2.5381      2.00000
      3       0.2316      2.00000
      4       1.8724      2.00000
      5       5.0170      0.00000
      6       7.6262      0.00000
      7       7.8031      0.00000
      8       8.8688      0.00000

 k-point    34 :      -0.2500    0.2500    0.0000
  band No.  band energies     occupation 
      1      -5.4562      2.00000
      2      -1.9271      2.00000
      3       0.4523      2.00000
      4       2.1574      2.00000
      5       5.1641      0.00000
      6       7.3087      0.00000
      7       7.5274      0.00000
      8       7.9808      0.00000

 k-point    35 :       0.3333    0.3333    0.0000
  band No.  band energies     occupation 
      1      -5.5323      2.00000
      2      -1.6955      2.00000
      3       1.3760      2.00000
      4       1.3760      2.00000
      5       4.2174      0.00000
      6       5.2715      0.00000
      7       9.1133      0.00000
      8       9.1133      0.00000

 k-point    36 :       0.4167    0.3333    0.0000
  band No.  band energies     occupation 
      1      -5.1317      2.00000
      2      -2.3011      2.00000
      3       1.0427      2.00000
      4       1.2628      2.00000
      5       4.3566      0.00000
      6       5.1745      0.00000
      7       9.2448      0.00000
      8       9.4833      0.00000

 k-point    37 :       0.5000    0.3333    0.0000
  band No.  band energies     occupation 
      1      -4.6760      2.00000
      2      -2.8821      2.00000
      3       0.5495      2.00000
      4       1.2623      2.00000
      5       4.5194      0.00000
      6       5.7845      0.00000
      7       9.0886      0.00000
      8       9.4500      0.00000

 k-point    38 :      -0.4167    0.3333    0.0000
  band No.  band energies     occupation 
      1      -4.3712      2.00000
      2      -3.2199      2.00000
      3       0.1546      2.00000
      4       1.3740      2.00000
      5       4.6317      0.00000
      6       6.9124      0.00000
      7       8.9501      0.00000
      8       9.1511      0.00000

 k-point    39 :      -0.3333    0.3333    0.0000
  band No.  band energies     occupation 
      1      -4.5825      2.00000
      2      -2.9842      2.00000
      3       0.0125      2.00000
      4       1.5865      2.00000
      5       4.8174      0.00000
      6       8.1995      0.00000
      7       8.5919      0.00000
      8       8.7798      0.00000

 k-point    40 :       0.4167    0.4167    0.0000
  band No.  band energies     occupation 
      1      -4.7538      2.00000
      2      -2.8113      2.00000
      3       1.1223      2.00000
      4       1.1223      2.00000
      5       4.1406      0.00000
      6       4.6875      0.00000
      7      10.2421      0.00000
      8      10.2421      0.00000

 k-point    41 :       0.5000    0.4167    0.0000
  band No.  band energies     occupation 
      1      -4.2967      2.00000
      2      -3.3394      2.00000
      3       0.8439      2.00000
      4       1.0943      2.00000
      5       4.3228      0.00000
      6       4.7617      0.00000
      7      10.3463      0.00000
      8      10.4392      0.00000

 k-point    42 :      -0.4167    0.4167    0.0000
  band No.  band energies     occupation 
      1      -4.0003      2.00000
      2      -3.6246      2.00000
      3       0.4104      2.00000
      4       1.1809      2.00000
      5       4.4410      0.00000
      6       5.6538      0.00000
      7      10.0128      0.00000
      8      10.0293      0.00000

 k-point    43 :       0.5000    0.5000    0.0000
  band No.  band energies     occupation 
      1      -3.8390      2.00000
      2      -3.8390      2.00000
      3       1.0365      2.00000
      4       1.0365      2.00000
      5       4.2954      0.00000
      6       4.2954      0.00000
      7      10.8841      0.00000
      8      10.8841      0.00000

 k-point    44 :       0.2500    0.1667    0.0833
  band No.  band energies     occupation 
      1      -6.5225      2.00000
      2       0.3031      2.00000
      3       2.0072      2.00000
      4       2.5962      2.00000
      5       5.2779      0.00000
      6       5.3814      0.00000
      7       6.7321      0.00000
      8       7.2171      0.00000

 k-point    45 :       0.3333    0.1667    0.0833
  band No.  band energies     occupation 
      1      -6.1952      2.00000
      2      -0.6400      2.00000
      3       1.5615      2.00000
      4       2.3957      2.00000
      5       5.1835      0.00000
      6       5.8395      0.00000
      7       7.1125      0.00000
      8       7.6196      0.00000

 k-point    46 :       0.4167    0.1667    0.0833
  band No.  band energies     occupation 
      1      -5.7736      2.00000
      2      -1.5904      2.00000
      3       1.2882      2.00000
      4       2.1642      2.00000
      5       5.0160      0.00000
      6       6.2274      0.00000
      7       7.2340      0.00000
      8       8.1662      0.00000

 k-point    47 :       0.5000    0.1667    0.0833
  band No.  band energies     occupation 
      1      -5.3408      2.00000
      2      -2.3668      2.00000
      3       1.1420      2.00000
      4       1.9950      2.00000
      5       4.8942      0.00000
      6       6.3469      0.00000
      7       7.2288      0.00000
      8       9.0623      0.00000

 k-point    48 :      -0.4167    0.1667    0.0833
  band No.  band energies     occupation 
      1      -5.1244      2.00000
      2      -2.7013      2.00000
      3       1.0964      2.00000
      4       1.9337      2.00000
      5       4.8508      0.00000
      6       6.3578      0.00000
      7       7.2156      0.00000
      8       9.8934      0.00000

 k-point    49 :       0.3333    0.2500    0.0833
  band No.  band energies     occupation 
      1      -6.0750      2.00000
      2      -0.7573      2.00000
      3       1.4806      2.00000
      4       1.9440      2.00000
      5       4.9804      0.00000
      6       5.8468      0.00000
      7       7.4858      0.00000
      8       7.8720      0.00000

 k-point    50 :       0.4167    0.2500    0.0833
  band No.  band energies     occupation 
      1      -5.6799      2.00000
      2      -1.5438      2.00000
      3       1.0492      2.00000
      4       1.7475      2.00000
      5       5.1997      0.00000
      6       6.1063      0.00000
      7       7.3680      0.00000
      8       8.2427      0.00000

 k-point    51 :       0.5000    0.2500    0.0833
  band No.  band energies     occupation 
      1      -5.2323      2.00000
      2      -2.2904      2.00000
      3       0.7328      2.00000
      4       1.6074      2.00000
      5       5.2199      0.00000
      6       6.5813      0.00000
      7       7.5477      0.00000
      8       8.3440      0.00000

 k-point    52 :      -0.4167    0.2500    0.0833
  band No.  band energies     occupation 
      1      -4.9033      2.00000
      2      -2.7633      2.00000
      3       0.5321      2.00000
      4       1.5952      2.00000
      5       5.2401      0.00000
      6       6.6420      0.00000
      7       8.0551      0.00000
      8       8.7293      0.00000

 k-point    53 :      -0.3333    0.2500    0.0833
  band No.  band energies     occupation 
      1      -4.9934      2.00000
      2      -2.6381      2.00000
      3       0.4671      2.00000
      4       1.7136      2.00000
      5       5.3256      0.00000
      6       6.6052      0.00000
      7       7.9841      0.00000
      8       8.9847      0.00000

 k-point    54 :      -0.2500    0.2500    0.0833
  band No.  band energies     occupation 
      1      -5.3994      2.00000
      2      -2.0348      2.00000
      3       0.5774      2.00000
      4       1.9341      2.00000
      5       5.4559      0.00000
      6       6.4928      0.00000
      7       7.6670      0.00000
      8       8.2119      0.00000

 k-point    55 :      -0.1667    0.2500    0.0833
  band No.  band energies     occupation 
      1      -5.8371      2.00000
      2      -1.3018      2.00000
      3       0.9257      2.00000
      4       2.1989      2.00000
      5       5.5284      0.00000
      6       6.0675      0.00000
      7       7.5006      0.00000
      8       7.6671      0.00000

 k-point    56 :       0.4167    0.3333    0.0833
  band No.  band energies     occupation 
      1      -5.4636      2.00000
      2      -1.8156      2.00000
      3       1.0926      2.00000
      4       1.3994      2.00000
      5       4.7027      0.00000
      6       5.5721      0.00000
      7       8.1855      0.00000
      8       9.0767      0.00000

 k-point    57 :       0.5000    0.3333    0.0833
  band No.  band energies     occupation 
      1      -5.0202      2.00000
      2      -2.4516      2.00000
      3       0.6742      2.00000
      4       1.2518      2.00000
      5       4.9757      0.00000
      6       5.9706      0.00000
      7       7.9828      0.00000
      8       9.3713      0.00000

 k-point    58 :      -0.4167    0.3333    0.0833
  band No.  band energies     occupation 
      1      -4.6136      2.00000
      2      -2.9585      2.00000
      3       0.3043      2.00000
      4       1.2542      2.00000
      5       5.0777      0.00000
      6       6.9761      0.00000
      7       7.7988      0.00000
      8       9.2449      0.00000

 k-point    59 :      -0.3333    0.3333    0.0833
  band No.  band energies     occupation 
      1      -4.5811      2.00000
      2      -2.9928      2.00000
      3       0.1101      2.00000
      4       1.3939      2.00000
      5       5.2209      0.00000
      6       7.5277      0.00000
      7       8.3467      0.00000
      8       8.6217      0.00000

 k-point    60 :      -0.2500    0.3333    0.0833
  band No.  band energies     occupation 
      1      -4.9581      2.00000
      2      -2.5503      2.00000
      3       0.1783      2.00000
      4       1.6392      2.00000
      5       5.4090      0.00000
      6       7.2134      0.00000
      7       7.8427      0.00000
      8       8.8181      0.00000

 k-point    61 :       0.5000    0.4167    0.0833
  band No.  band energies     occupation 
      1      -4.7049      2.00000
      2      -2.8481      2.00000
      3       0.8788      2.00000
      4       1.0300      2.00000
      5       4.6092      0.00000
      6       5.0724      0.00000
      7       9.2455      0.00000
      8      10.1829      0.00000

 k-point    62 :      -0.4167    0.4167    0.0833
  band No.  band energies     occupation 
      1      -4.2528      2.00000
      2      -3.3419      2.00000
      3       0.4734      2.00000
      4       0.9961      2.00000
      5       4.8533      0.00000
      6       5.7251      0.00000
      7       9.0341      0.00000
      8       9.9508      0.00000

 k-point    63 :      -0.3333    0.4167    0.0833
  band No.  band energies     occupation 
      1      -4.1833      2.00000
      2      -3.3964      2.00000
      3       0.1413      2.00000
      4       1.1386      2.00000
      5       5.0056      0.00000
      6       6.9257      0.00000
      7       8.7337      0.00000
      8       8.9185      0.00000

 k-point    64 :      -0.4167    0.5000    0.0833
  band No.  band energies     occupation 
      1      -3.8228      2.00000
      2      -3.8228      2.00000
      3       0.8557      2.00000
      4       0.8557      2.00000
      5       4.7306      0.00000
      6       4.7306      0.00000
      7      10.2637      0.00000
      8      10.2637      0.00000

 k-point    65 :       0.5000    0.3333    0.1667
  band No.  band energies     occupation 
      1      -5.2645      2.00000
      2      -2.1328      2.00000
      3       0.5818      2.00000
      4       1.4987      2.00000
      5       5.8169      0.00000
      6       6.1180      0.00000
      7       7.1420      0.00000
      8       8.9742      0.00000

 k-point    66 :      -0.4167    0.3333    0.1667
  band No.  band energies     occupation 
      1      -4.8204      2.00000
      2      -2.7097      2.00000
      3       0.3173      2.00000
      4       1.2726      2.00000
      5       5.9657      0.00000
      6       6.5093      0.00000
      7       7.3911      0.00000
      8       9.2238      0.00000

 k-point    67 :      -0.3333    0.3333    0.1667
  band No.  band energies     occupation 
      1      -4.5796      2.00000
      2      -3.0013      2.00000
      3       0.2353      2.00000
      4       1.1855      2.00000
      5       5.9680      0.00000
      6       6.5319      0.00000
      7       8.4472      0.00000
      8       8.4759      0.00000

 k-point    68 :      -0.4167    0.4167    0.1667
  band No.  band energies     occupation 
      1      -4.5698      2.00000
      2      -2.9657      2.00000
      3       0.4497      2.00000
      4       0.9152      2.00000
      5       5.7159      0.00000
      6       6.0357      0.00000
      7       7.7309      0.00000
      8       9.7461      0.00000

 k-point    69 :      -0.3333    0.4167    0.1667
  band No.  band energies     occupation 
      1      -4.2051      2.00000
      2      -3.3484      2.00000
      3       0.2490      2.00000
      4       0.8054      2.00000
      5       5.9662      0.00000
      6       7.0111      0.00000
      7       7.5230      0.00000
      8       8.6018      0.00000

 k-point    70 :      -0.2500    0.4167    0.1667
  band No.  band energies     occupation 
      1      -4.3816      2.00000
      2      -3.1610      2.00000
      3       0.1603      2.00000
      4       0.9619      2.00000
      5       6.1384      0.00000
      6       7.1295      0.00000
      7       7.4986      0.00000
      8       8.4274      0.00000

 k-point    71 :      -0.3333    0.5000    0.1667
  band No.  band energies     occupation 
      1      -3.7893      2.00000
      2      -3.7893      2.00000
      3       0.5570      2.00000
      4       0.5570      2.00000
      5       5.7946      0.00000
      6       5.7946      0.00000
      7       8.7978      0.00000
      8       8.7978      0.00000

 k-point    72 :      -0.2500    0.5000    0.2500
  band No.  band energies     occupation 
      1      -3.7720      2.00000
      2      -3.7720      2.00000
      3       0.4280      2.00000
      4       0.4280      2.00000
      5       7.0312      0.00000
      6       7.0312      0.00000
      7       7.3962      0.00000
      8       7.3962      0.00000


--------------------------------------------------------------------------------------------------------


 soft charge-density along one line, spin component           1
         0         1         2         3         4         5         6         7         8         9
 total charge-density along one line
 
 pseudopotential strength for first ion, spin component:           1
 18.728   0.002   0.000   0.000   0.000  -0.000  -0.000  -0.000
  0.002   0.006  -0.000  -0.000  -0.000   0.000   0.000   0.000
  0.000  -0.000   4.212  -0.000  -0.000  -0.002   0.000   0.000
  0.000  -0.000  -0.000   4.212  -0.000   0.000  -0.002   0.000
  0.000  -0.000  -0.000  -0.000   4.212   0.000   0.000  -0.002
 -0.000   0.000  -0.002   0.000   0.000   0.005  -0.000  -0.000
 -0.000   0.000   0.000  -0.002   0.000  -0.000   0.005  -0.000
 -0.000   0.000   0.000   0.000  -0.002  -0.000  -0.000   0.005
 total augmentation occupancy for first ion, spin component:           1
  1.589  -0.389  -0.000  -0.000  -0.000   0.000   0.000  -0.000
 -0.389   0.369   0.000   0.000  -0.000   0.000   0.000  -0.000
 -0.000   0.000   0.850  -0.000   0.000  -0.357   0.000   0.000
 -0.000  -0.000   0.000   0.850   0.000   0.000  -0.357   0.000
 -0.000   0.000   0.000   0.000   0.850   0.000   0.000  -0.357
  0.000   0.000  -0.357   0.000   0.000   0.182   0.000   0.000
  0.000   0.000   0.000  -0.357   0.000   0.000   0.182   0.000
  0.000  -0.000   0.000   0.000  -0.357   0.000   0.000   0.182


------------------------ aborting loop because EDIFF is reached ----------------------------------------


    CHARGE:  cpu time    0.03: real time    0.03
    FORLOC:  cpu time    0.00: real time    0.00
    FORNL :  cpu time    0.04: real time    0.04
    STRESS:  cpu time    0.35: real time    0.36
    FORCOR:  cpu time    0.02: real time    0.02
    FORHAR:  cpu time    0.01: real time    0.01
    MIXING:  cpu time    0.00: real time    0.00
    OFIELD:  cpu time    0.00: real time    0.00

  FORCE on cell =-STRESS in cart. coord.  units (eV):
  Direction    XX          YY          ZZ          XY          YZ          ZX
  --------------------------------------------------------------------------------------
  Alpha Z     2.48803     2.48803     2.48803
  Ewald     -68.89901   -68.89901   -68.89901     0.00000     0.00000    -0.00000
  Hartree     6.25253     6.25253     6.25253     0.00000     0.00000     0.00000
  E(xc)     -23.85778   -23.85778   -23.85778    -0.00000    -0.00000    -0.00000
  Local     -33.98956   -33.98956   -33.98956     0.00001     0.00001     0.00001
  n-local    75.51027    76.92568    71.28688     1.75652    -0.93919     0.31714
  augment   -11.88861   -11.88861   -11.88861    -0.00001    -0.00001    -0.00001
  Kinetic    53.01199    52.41961    47.21861     3.59323    -1.11858     1.03291
  Fock        0.00000     0.00000     0.00000     0.00000     0.00000     0.00000
  -------------------------------------------------------------------------------------
  Total      -4.43671    -4.43671    -4.43671     0.00000     0.00000    -0.00000
  in kB    -131.34496  -131.34496  -131.34496     0.00000     0.00000    -0.00000
  external pressure =     -131.34 kB  Pullay stress =        0.00 kB


 VOLUME and BASIS-vectors are now :
 -----------------------------------------------------------------------------
  energy-cutoff  :      600.00
  volume of cell :       54.12
      direct lattice vectors                 reciprocal lattice vectors
     0.000000000  3.002221400  3.002221400    -0.166543347  0.166543347  0.166543347
     3.002221400  0.000000000  3.002221400     0.166543347 -0.166543347  0.166543347
     3.002221400  3.002221400  0.000000000     0.166543347  0.166543347 -0.166543347

  length of vectors
     4.245782221  4.245782221  4.245782221     0.288461538  0.288461538  0.288461538


 FORCES acting on ions
    electron-ion (+dipol)            ewald-force                    non-local-force                 convergence-correction
 -----------------------------------------------------------------------------------------------
   0.867E-07 0.867E-07 0.910E-07   0.369E-15 -.184E-15 0.168E-17   -.555E-16 -.208E-16 -.243E-16   -.172E-12 -.172E-12 -.176E-12
   -.867E-07 -.867E-07 -.910E-07   -.353E-15 -.542E-16 0.316E-15   0.555E-16 0.278E-16 0.364E-16   0.181E-12 0.174E-12 0.173E-12
 -----------------------------------------------------------------------------------------------
   0.928E-13 0.396E-14 0.219E-14   0.161E-16 -.238E-15 0.317E-15   0.000E+00 0.694E-17 0.121E-16   0.876E-14 0.149E-14 -.320E-14
 
 
 POSITION                                       TOTAL-FORCE (eV/Angst)
 -----------------------------------------------------------------------------------
      0.00000      0.00000      0.00000         0.000000      0.000000      0.000000
      1.50111      1.50111      1.50111        -0.000000     -0.000000     -0.000000
 -----------------------------------------------------------------------------------
    total drift:                                0.000000      0.000000     -0.000000


--------------------------------------------------------------------------------------------------------



  FREE ENERGIE OF THE ION-ELECTRON SYSTEM (eV)
  ---------------------------------------------------
  free  energy   TOTEN  =       -10.14193062 eV

  energy  without entropy=      -10.14192806  energy(sigma->0) =      -10.14192934
 


--------------------------------------------------------------------------------------------------------


    POTLOK:  cpu time    0.02: real time    0.02


--------------------------------------------------------------------------------------------------------


 writing wavefunctions
     LOOP+:  cpu time    9.21: real time    9.69
    4ORBIT:  cpu time    0.00: real time    0.00

 total amount of memory used by VASP on root node    47402. kBytes
========================================================================

   base      :      30000. kBytes
   nonl-proj :       8481. kBytes
   fftplans  :       1619. kBytes
   grid      :       3048. kBytes
   one-center:          6. kBytes
   wavefun   :       4248. kBytes
 
  
  
 General timing and accounting informations for this job:
 ========================================================
  
                  Total CPU time used (sec):        9.732
                            User time (sec):        9.396
                          System time (sec):        0.336
                         Elapsed time (sec):       10.393
  
                   Maximum memory used (kb):       55472.
                   Average memory used (kb):           0.
  
                          Minor page faults:         8863
                          Major page faults:            7
                 Voluntary context switches:          522
