 vasp.5.3.5 31Mar14 (build Jun 01 2017 17:55:53) complex                        
  
 executed on             LinuxIFC date 2020.11.10  15:18:40
 running on    4 total cores
 distrk:  each k-point on    4 cores,    1 groups
 distr:  one band on NCORES_PER_BAND=   1 cores,    4 groups


--------------------------------------------------------------------------------------------------------


 INCAR:
 POTCAR:   PAW_PBE Si 05Jan2001                   
 POTCAR:   PAW_PBE Si 05Jan2001                   
   VRHFIN =Si: s2p2                                                             
   LEXCH  = PE                                                                  
   EATOM  =   103.0669 eV,    7.5752 Ry                                         
                                                                                
   TITEL  = PAW_PBE Si 05Jan2001                                                
   LULTRA =        F    use ultrasoft PP ?                                      
   IUNSCR =        1    unscreen: 0-lin 1-nonlin 2-no                           
   RPACOR =    1.500    partial core radius                                     
   POMASS =   28.085; ZVAL   =    4.000    mass and valenz                      
   RCORE  =    1.900    outmost cutoff radius                                   
   RWIGS  =    2.480; RWIGS  =    1.312    wigner-seitz radius (au A)           
   ENMAX  =  245.345; ENMIN  =  184.009 eV                                      
   ICORE  =        2    local potential                                         
   LCOR   =        T    correct aug charges                                     
   LPAW   =        T    paw PP                                                  
   EAUG   =  322.069                                                            
   DEXC   =    -.007                                                            
   RMAX   =    2.944    core radius for proj-oper                               
   RAUG   =    1.300    factor for augmentation sphere                          
   RDEP   =    1.993    radius for radial grids                                 
   QCUT   =   -4.246; QGAM   =    8.493    optimization parameters              
                                                                                
   Description                                                                  
     l     E      TYP  RCUT    TYP  RCUT                                        
     0   .000     23  1.900                                                     
     0   .000     23  1.900                                                     
     1   .000     23  1.900                                                     
     1   .000     23  1.900                                                     
     2   .000      7  1.900                                                     
  local pseudopotential read in
  partial core-charges read in
  atomic valenz-charges read in
  non local Contribution for L=           0  read in
    real space projection operators read in
  non local Contribution for L=           0  read in
    real space projection operators read in
  non local Contribution for L=           1  read in
    real space projection operators read in
  non local Contribution for L=           1  read in
    real space projection operators read in
    PAW grid and wavefunctions read in
 
   number of l-projection  operators is LMAX  =           4
   number of lm-projection operators is LMMAX =           8
 
 PAW_PBE Si 05Jan2001                   :
 energy of atom  1       EATOM= -103.0669
 kinetic energy error for atom=    0.0003 (will be added to EATOM!!)
 
 
 POSCAR: Si
  positions in direct lattice
  velocities in cartesian coordinates
  No initial velocities read in
 exchange correlation table for  LEXCH =        8
   RHO(1)=    0.500       N(1)  =     2000
   RHO(2)=  100.500       N(2)  =     4000
 


--------------------------------------------------------------------------------------------------------


 ion  position               nearest neighbor table
   1  0.000  0.000  0.000-   2 2.70   2 2.70   2 2.70   2 2.70
   2  0.250  0.250  0.250-   1 2.70   1 2.70   1 2.70   1 2.70
 
  LATTYP: Found a face centered cubic cell.
 ALAT       =     6.2353829072
  
  Lattice vectors:
  
 A1 = (   0.0000000000,   3.1176914536,   3.1176914536)
 A2 = (   3.1176914536,   0.0000000000,   3.1176914536)
 A3 = (   3.1176914536,   3.1176914536,   0.0000000000)


Analysis of symmetry for initial positions (statically):
=====================================================================
 Subroutine PRICEL returns:
 Original cell was already a primitive cell.
 

 Routine SETGRP: Setting up the symmetry group for a 
 face centered cubic supercell.


 Subroutine GETGRP returns: Found 48 space group operations
 (whereof 24 operations were pure point group operations)
 out of a pool of 48 trial point group operations.


The static configuration has the point symmetry T_d .
 The point group associated with its full space group is O_h .


Analysis of symmetry for dynamics (positions and initial velocities):
=====================================================================
 Subroutine PRICEL returns:
 Original cell was already a primitive cell.
 

 Routine SETGRP: Setting up the symmetry group for a 
 face centered cubic supercell.


 Subroutine GETGRP returns: Found 48 space group operations
 (whereof 24 operations were pure point group operations)
 out of a pool of 48 trial point group operations.


The dynamic configuration has the point symmetry T_d .
 The point group associated with its full space group is O_h .


Analysis of constrained symmetry for selective dynamics:
=====================================================================
 Subroutine PRICEL returns:
 Original cell was already a primitive cell.
 

 Routine SETGRP: Setting up the symmetry group for a 
 face centered cubic supercell.


 Subroutine GETGRP returns: Found 48 space group operations
 (whereof 24 operations were pure point group operations)
 out of a pool of 48 trial point group operations.


The constrained configuration has the point symmetry T_d .
 The point group associated with its full space group is O_h .
 
 
 KPOINTS: Gamma centered Monkhorst-Pack           

Automatic generation of k-mesh.
Space group operators:
 irot       det(A)        alpha          n_x          n_y          n_z        tau_x        tau_y        tau_z
    1     1.000000     0.000000     1.000000     0.000000     0.000000     0.000000     0.000000     0.000000
    2     1.000000   120.000000    -0.577350    -0.577350    -0.577350     0.000000     0.000000     0.000000
    3     1.000000   120.000000     0.577350     0.577350     0.577350     0.000000     0.000000     0.000000
    4    -1.000000    90.000000     0.000000     0.000000    -1.000000     0.000000     0.000000     0.000000
    5    -1.000000   180.000000     0.000000     0.707107     0.707107     0.000000     0.000000     0.000000
    6    -1.000000    90.000000     0.000000     1.000000     0.000000     0.000000     0.000000     0.000000
    7     1.000000   180.000000     0.000000     0.000000     1.000000     0.000000     0.000000     0.000000
    8     1.000000   120.000000    -0.577350     0.577350     0.577350     0.000000     0.000000     0.000000
    9     1.000000   120.000000    -0.577350     0.577350    -0.577350     0.000000     0.000000     0.000000
   10    -1.000000    90.000000     0.000000     0.000000     1.000000     0.000000     0.000000     0.000000
   11    -1.000000    90.000000    -1.000000     0.000000     0.000000     0.000000     0.000000     0.000000
   12    -1.000000   180.000000     0.707107     0.000000     0.707107     0.000000     0.000000     0.000000
   13     1.000000   120.000000     0.577350    -0.577350     0.577350     0.000000     0.000000     0.000000
   14     1.000000   120.000000    -0.577350    -0.577350     0.577350     0.000000     0.000000     0.000000
   15     1.000000   180.000000     1.000000     0.000000     0.000000     0.000000     0.000000     0.000000
   16    -1.000000    90.000000     0.000000    -1.000000     0.000000     0.000000     0.000000     0.000000
   17    -1.000000   180.000000     0.707107     0.707107     0.000000     0.000000     0.000000     0.000000
   18    -1.000000    90.000000     1.000000     0.000000     0.000000     0.000000     0.000000     0.000000
   19     1.000000   120.000000     0.577350    -0.577350    -0.577350     0.000000     0.000000     0.000000
   20     1.000000   180.000000     0.000000     1.000000     0.000000     0.000000     0.000000     0.000000
   21     1.000000   120.000000     0.577350     0.577350    -0.577350     0.000000     0.000000     0.000000
   22    -1.000000   180.000000     0.000000    -0.707107     0.707107     0.000000     0.000000     0.000000
   23    -1.000000   180.000000     0.707107    -0.707107     0.000000     0.000000     0.000000     0.000000
   24    -1.000000   180.000000     0.707107     0.000000    -0.707107     0.000000     0.000000     0.000000
   25    -1.000000     0.000000     1.000000     0.000000     0.000000     0.250000     0.250000     0.250000
   26    -1.000000   120.000000    -0.577350    -0.577350    -0.577350     0.250000     0.250000     0.250000
   27    -1.000000   120.000000     0.577350     0.577350     0.577350     0.250000     0.250000     0.250000
   28     1.000000    90.000000     0.000000     0.000000    -1.000000     0.250000     0.250000     0.250000
   29     1.000000   180.000000     0.000000     0.707107     0.707107     0.250000     0.250000     0.250000
   30     1.000000    90.000000     0.000000     1.000000     0.000000     0.250000     0.250000     0.250000
   31    -1.000000   180.000000     0.000000     0.000000     1.000000     0.250000     0.250000     0.250000
   32    -1.000000   120.000000    -0.577350     0.577350     0.577350     0.250000     0.250000     0.250000
   33    -1.000000   120.000000    -0.577350     0.577350    -0.577350     0.250000     0.250000     0.250000
   34     1.000000    90.000000     0.000000     0.000000     1.000000     0.250000     0.250000     0.250000
   35     1.000000    90.000000    -1.000000     0.000000     0.000000     0.250000     0.250000     0.250000
   36     1.000000   180.000000     0.707107     0.000000     0.707107     0.250000     0.250000     0.250000
   37    -1.000000   120.000000     0.577350    -0.577350     0.577350     0.250000     0.250000     0.250000
   38    -1.000000   120.000000    -0.577350    -0.577350     0.577350     0.250000     0.250000     0.250000
   39    -1.000000   180.000000     1.000000     0.000000     0.000000     0.250000     0.250000     0.250000
   40     1.000000    90.000000     0.000000    -1.000000     0.000000     0.250000     0.250000     0.250000
   41     1.000000   180.000000     0.707107     0.707107     0.000000     0.250000     0.250000     0.250000
   42     1.000000    90.000000     1.000000     0.000000     0.000000     0.250000     0.250000     0.250000
   43    -1.000000   120.000000     0.577350    -0.577350    -0.577350     0.250000     0.250000     0.250000
   44    -1.000000   180.000000     0.000000     1.000000     0.000000     0.250000     0.250000     0.250000
   45    -1.000000   120.000000     0.577350     0.577350    -0.577350     0.250000     0.250000     0.250000
   46     1.000000   180.000000     0.000000    -0.707107     0.707107     0.250000     0.250000     0.250000
   47     1.000000   180.000000     0.707107    -0.707107     0.000000     0.250000     0.250000     0.250000
   48     1.000000   180.000000     0.707107     0.000000    -0.707107     0.250000     0.250000     0.250000
 
 Subroutine IBZKPT returns following result:
 ===========================================
 
 Found     72 irreducible k-points:
 
 Following reciprocal coordinates:
            Coordinates               Weight
  0.000000  0.000000  0.000000      1.000000
  0.083333  0.000000  0.000000      8.000000
  0.166667  0.000000  0.000000      8.000000
  0.250000  0.000000  0.000000      8.000000
  0.333333  0.000000  0.000000      8.000000
  0.416667  0.000000  0.000000      8.000000
  0.500000  0.000000  0.000000      4.000000
  0.083333  0.083333  0.000000      6.000000
  0.166667  0.083333  0.000000     24.000000
  0.250000  0.083333  0.000000     24.000000
  0.333333  0.083333  0.000000     24.000000
  0.416667  0.083333  0.000000     24.000000
  0.500000  0.083333  0.000000     24.000000
 -0.416667  0.083333  0.000000     24.000000
 -0.333333  0.083333  0.000000     24.000000
 -0.250000  0.083333  0.000000     24.000000
 -0.166667  0.083333  0.000000     24.000000
 -0.083333  0.083333  0.000000     12.000000
  0.166667  0.166667  0.000000      6.000000
  0.250000  0.166667  0.000000     24.000000
  0.333333  0.166667  0.000000     24.000000
  0.416667  0.166667  0.000000     24.000000
  0.500000  0.166667  0.000000     24.000000
 -0.416667  0.166667  0.000000     24.000000
 -0.333333  0.166667  0.000000     24.000000
 -0.250000  0.166667  0.000000     24.000000
 -0.166667  0.166667  0.000000     12.000000
  0.250000  0.250000  0.000000      6.000000
  0.333333  0.250000  0.000000     24.000000
  0.416667  0.250000  0.000000     24.000000
  0.500000  0.250000  0.000000     24.000000
 -0.416667  0.250000  0.000000     24.000000
 -0.333333  0.250000  0.000000     24.000000
 -0.250000  0.250000  0.000000     12.000000
  0.333333  0.333333  0.000000      6.000000
  0.416667  0.333333  0.000000     24.000000
  0.500000  0.333333  0.000000     24.000000
 -0.416667  0.333333  0.000000     24.000000
 -0.333333  0.333333  0.000000     12.000000
  0.416667  0.416667  0.000000      6.000000
  0.500000  0.416667  0.000000     24.000000
 -0.416667  0.416667  0.000000     12.000000
  0.500000  0.500000  0.000000      3.000000
  0.250000  0.166667  0.083333     24.000000
  0.333333  0.166667  0.083333     48.000000
  0.416667  0.166667  0.083333     48.000000
  0.500000  0.166667  0.083333     48.000000
 -0.416667  0.166667  0.083333     24.000000
  0.333333  0.250000  0.083333     24.000000
  0.416667  0.250000  0.083333     48.000000
  0.500000  0.250000  0.083333     48.000000
 -0.416667  0.250000  0.083333     48.000000
 -0.333333  0.250000  0.083333     48.000000
 -0.250000  0.250000  0.083333     48.000000
 -0.166667  0.250000  0.083333     24.000000
  0.416667  0.333333  0.083333     24.000000
  0.500000  0.333333  0.083333     48.000000
 -0.416667  0.333333  0.083333     48.000000
 -0.333333  0.333333  0.083333     48.000000
 -0.250000  0.333333  0.083333     24.000000
  0.500000  0.416667  0.083333     24.000000
 -0.416667  0.416667  0.083333     48.000000
 -0.333333  0.416667  0.083333     24.000000
 -0.416667  0.500000  0.083333     12.000000
  0.500000  0.333333  0.166667     24.000000
 -0.416667  0.333333  0.166667     48.000000
 -0.333333  0.333333  0.166667     24.000000
 -0.416667  0.416667  0.166667     24.000000
 -0.333333  0.416667  0.166667     48.000000
 -0.250000  0.416667  0.166667     24.000000
 -0.333333  0.500000  0.166667     12.000000
 -0.250000  0.500000  0.250000      6.000000
 
 Following cartesian coordinates:
            Coordinates               Weight
  0.000000  0.000000  0.000000      1.000000
 -0.083333  0.083333  0.083333      8.000000
 -0.166667  0.166667  0.166667      8.000000
 -0.250000  0.250000  0.250000      8.000000
 -0.333333  0.333333  0.333333      8.000000
 -0.416667  0.416667  0.416667      8.000000
 -0.500000  0.500000  0.500000      4.000000
  0.000000  0.000000  0.166667      6.000000
 -0.083333  0.083333  0.250000     24.000000
 -0.166667  0.166667  0.333333     24.000000
 -0.250000  0.250000  0.416667     24.000000
 -0.333333  0.333333  0.500000     24.000000
 -0.416667  0.416667  0.583333     24.000000
  0.500000 -0.500000 -0.333333     24.000000
  0.416667 -0.416667 -0.250000     24.000000
  0.333333 -0.333333 -0.166667     24.000000
  0.250000 -0.250000 -0.083333     24.000000
  0.166667 -0.166667  0.000000     12.000000
  0.000000  0.000000  0.333333      6.000000
 -0.083333  0.083333  0.416667     24.000000
 -0.166667  0.166667  0.500000     24.000000
 -0.250000  0.250000  0.583333     24.000000
 -0.333333  0.333333  0.666667     24.000000
  0.583333 -0.583333 -0.250000     24.000000
  0.500000 -0.500000 -0.166667     24.000000
  0.416667 -0.416667 -0.083333     24.000000
  0.333333 -0.333333  0.000000     12.000000
  0.000000  0.000000  0.500000      6.000000
 -0.083333  0.083333  0.583333     24.000000
 -0.166667  0.166667  0.666667     24.000000
 -0.250000  0.250000  0.750000     24.000000
  0.666667 -0.666667 -0.166667     24.000000
  0.583333 -0.583333 -0.083333     24.000000
  0.500000 -0.500000  0.000000     12.000000
  0.000000  0.000000  0.666667      6.000000
 -0.083333  0.083333  0.750000     24.000000
 -0.166667  0.166667  0.833333     24.000000
  0.750000 -0.750000 -0.083333     24.000000
  0.666667 -0.666667  0.000000     12.000000
  0.000000  0.000000  0.833333      6.000000
 -0.083333  0.083333  0.916667     24.000000
  0.833333 -0.833333  0.000000     12.000000
  0.000000  0.000000  1.000000      3.000000
  0.000000  0.166667  0.333333     24.000000
 -0.083333  0.250000  0.416667     48.000000
 -0.166667  0.333333  0.500000     48.000000
 -0.250000  0.416667  0.583333     48.000000
  0.666667 -0.500000 -0.333333     24.000000
  0.000000  0.166667  0.500000     24.000000
 -0.083333  0.250000  0.583333     48.000000
 -0.166667  0.333333  0.666667     48.000000
  0.750000 -0.583333 -0.250000     48.000000
  0.666667 -0.500000 -0.166667     48.000000
  0.583333 -0.416667 -0.083333     48.000000
  0.500000 -0.333333  0.000000     24.000000
 -0.000000  0.166667  0.666667     24.000000
 -0.083333  0.250000  0.750000     48.000000
  0.833333 -0.666667 -0.166667     48.000000
  0.750000 -0.583333 -0.083333     48.000000
  0.666667 -0.500000  0.000000     24.000000
  0.000000  0.166667  0.833333     24.000000
  0.916667 -0.750000 -0.083333     48.000000
  0.833333 -0.666667  0.000000     24.000000
  1.000000 -0.833333  0.000000     12.000000
  0.000000  0.333333  0.666667     24.000000
  0.916667 -0.583333 -0.250000     48.000000
  0.833333 -0.500000 -0.166667     24.000000
  1.000000 -0.666667 -0.166667     24.000000
  0.916667 -0.583333 -0.083333     48.000000
  0.833333 -0.500000  0.000000     24.000000
  1.000000 -0.666667  0.000000     12.000000
  1.000000 -0.500000  0.000000      6.000000
 


--------------------------------------------------------------------------------------------------------




 Dimension of arrays:
   k-points           NKPTS =     72   k-points in BZ     NKDIM =     72   number of bands    NBANDS=      8
   number of dos      NEDOS =    301   number of ions     NIONS =      2
   non local maximal  LDIM  =      4   non local SUM 2l+1 LMDIM =      8
   total plane-waves  NPLWV =  21952
   max r-space proj   IRMAX =      1   max aug-charges    IRDMAX=  12308
   dimension x,y,z NGX =    28 NGY =   28 NGZ =   28
   dimension x,y,z NGXF=    56 NGYF=   56 NGZF=   56
   support grid    NGXF=    56 NGYF=   56 NGZF=   56
   ions per type =               2
 NGX,Y,Z   is equivalent  to a cutoff of  10.56, 10.56, 10.56 a.u.
 NGXF,Y,Z  is equivalent  to a cutoff of  21.11, 21.11, 21.11 a.u.


 I would recommend the setting:
   dimension x,y,z NGX =    26 NGY =   26 NGZ =   26
 SYSTEM =  Si
 POSCAR =  Si

 Startparameter for this run:
   NWRITE =      2    write-flag & timer
   PREC   = normal    normal or accurate (medium, high low for compatibility)
   ISTART =      0    job   : 0-new  1-cont  2-samecut
   ICHARG =      2    charge: 1-file 2-atom 10-const
   ISPIN  =      1    spin polarized calculation?
   LNONCOLLINEAR =      F non collinear calculations
   LSORBIT =      F    spin-orbit coupling
   INIWAV =      1    electr: 0-lowe 1-rand  2-diag
   LASPH  =      F    aspherical Exc in radial PAW
   METAGGA=      F    non-selfconsistent MetaGGA calc.

 Electronic Relaxation 1
   ENCUT  =  600.0 eV  44.10 Ry    6.64 a.u.   8.81  8.81  8.81*2*pi/ulx,y,z
   ENINI  =  600.0     initial cutoff
   ENAUG  = 1200.0 eV  augmentation charge cutoff
   NELM   =    500;   NELMIN=  2; NELMDL= -5     # of ELM steps 
   EDIFF  = 0.1E-09   stopping-criterion for ELM
   LREAL  =      F    real-space projection
   NLSPLINE    = F    spline interpolate recip. space projectors
   LCOMPAT=      F    compatible to vasp.4.4
   GGA_COMPAT  = T    GGA compatible to vasp.4.4-vasp.4.6
   LMAXPAW     = -100 max onsite density
   LMAXMIX     =    2 max onsite mixed and CHGCAR
   VOSKOWN=      0    Vosko Wilk Nusair interpolation
   ROPT   =    0.00000
 Ionic relaxation
   EDIFFG = 0.1E-08   stopping-criterion for IOM
   NSW    =      0    number of steps for IOM
   NBLOCK =      1;   KBLOCK =      1    inner block; outer block 
   IBRION =     -1    ionic relax: 0-MD 1-quasi-New 2-CG
   NFREE  =      0    steps in history (QN), initial steepest desc. (CG)
   ISIF   =      2    stress and relaxation
   IWAVPR =     10    prediction:  0-non 1-charg 2-wave 3-comb
   ISYM   =      2    0-nonsym 1-usesym 2-fastsym
   LCORR  =      T    Harris-Foulkes like correction to forces

   POTIM  = 0.5000    time-step for ionic-motion
   TEIN   =    0.0    initial temperature
   TEBEG  =    0.0;   TEEND  =   0.0 temperature during run
   SMASS  =  -3.00    Nose mass-parameter (am)
   estimated Nose-frequenzy (Omega)   =  0.10E-29 period in steps =****** mass=  -0.444E-27a.u.
   SCALEE = 1.0000    scale energy and forces
   NPACO  =    256;   APACO  = 16.0  distance and # of slots for P.C.
   PSTRESS=    0.0 pullay stress

  Mass of Ions in am
   POMASS =  28.09
  Ionic Valenz
   ZVAL   =   4.00
  Atomic Wigner-Seitz radii
   RWIGS  =  -1.00
  virtual crystal weights 
   VCA    =   1.00
   NELECT =       8.0000    total number of electrons
   NUPDOWN=      -1.0000    fix difference up-down

 DOS related values:
   EMIN   =  10.00;   EMAX   =-10.00  energy-range for DOS
   EFERMI =   0.00
   ISMEAR =    -1;   SIGMA  =   0.03  broadening in eV -4-tet -1-fermi 0-gaus

 Electronic relaxation 2 (details)
   IALGO  =     38    algorithm
   LDIAG  =      T    sub-space diagonalisation (order eigenvalues)
   LSUBROT=      F    optimize rotation matrix (better conditioning)
   TURBO    =      0    0=normal 1=particle mesh
   IRESTART =      0    0=no restart 2=restart with 2 vectors
   NREBOOT  =      0    no. of reboots
   NMIN     =      0    reboot dimension
   EREF     =   0.00    reference energy to select bands
   IMIX   =      4    mixing-type and parameters
     AMIX     =   0.40;   BMIX     =  1.00
     AMIX_MAG =   1.60;   BMIX_MAG =  1.00
     AMIN     =   0.10
     WC   =   100.;   INIMIX=   1;  MIXPRE=   1;  MAXMIX= -45

 Intra band minimization:
   WEIMIN = 0.0000     energy-eigenvalue tresh-hold
   EBREAK =  0.31E-11  absolut break condition
   DEPER  =   0.30     relativ break condition  

   TIME   =   0.40     timestep for ELM

  volume/ion in A,a.u.               =      30.30       204.50
  Fermi-wavevector in a.u.,A,eV,Ry     =   0.833544  1.575169  9.453261  0.694795
  Thomas-Fermi vector in A             =   1.946785
 
 Write flags
   LWAVE  =      T    write WAVECAR
   LCHARG =      T    write CHGCAR
   LVTOT  =      F    write LOCPOT, total local potential
   LVHAR  =      F    write LOCPOT, Hartree potential only
   LELF   =      F    write electronic localiz. function (ELF)
   LORBIT =      0    0 simple, 1 ext, 2 COOP (PROOUT)


 Dipole corrections
   LMONO  =      F    monopole corrections only (constant potential shift)
   LDIPOL =      F    correct potential (dipole corrections)
   IDIPOL =      0    1-x, 2-y, 3-z, 4-all directions 
   EPSILON=  1.0000000 bulk dielectric constant

 Exchange correlation treatment:
   GGA     =    PE    GGA type
   LEXCH   =     8    internal setting for exchange type
   VOSKOWN=      0    Vosko Wilk Nusair interpolation
   LHFCALC =     F    Hartree Fock is set to
   LHFONE  =     F    Hartree Fock one center treatment
   AEXX    =    0.0000 exact exchange contribution

 Linear response parameters
   LEPSILON=     F    determine dielectric tensor
   LRPA    =     F    only Hartree local field effects (RPA)
   LNABLA  =     F    use nabla operator in PAW spheres
   LVEL    =     F    velocity operator in full k-point grid
   LINTERFAST=   F  fast interpolation
   KINTER  =     0    interpolate to denser k-point grid
   CSHIFT  =0.1000    complex shift for real part using Kramers Kronig
   OMEGAMAX=  -1.0    maximum frequency
   DEG_THRESHOLD= 0.2000000E-02 threshold for treating states as degnerate
   RTIME   =    0.100 relaxation time in fs

 Orbital magnetization related:
   ORBITALMAG=     F  switch on orbital magnetization
   LCHIMAG   =     F  perturbation theory with respect to B field
   DQ        =  0.001000  dq finite difference perturbation B field



--------------------------------------------------------------------------------------------------------


 Static calculation
 charge density and potential will be updated during run
 non-spin polarized calculation
 Variant of blocked Davidson
 Davidson routine will perform the subspace rotation
 perform sub-space diagonalisation
    after iterative eigenvector-optimisation
 modified Broyden-mixing scheme, WC =      100.0
 initial mixing is a Kerker type mixing with AMIX =  0.4000 and BMIX =      1.0000
 Hartree-type preconditioning will be used
 using additional bands            4
 reciprocal scheme for non local part
 use partial core corrections
 calculate Harris-corrections to forces 
   (improved forces if not selfconsistent)
 use gradient corrections 
 use of overlap-Matrix (Vanderbilt PP)
 Fermi-smearing in eV        SIGMA  =   0.03


--------------------------------------------------------------------------------------------------------


  energy-cutoff  :      600.00
  volume of cell :       60.61
      direct lattice vectors                 reciprocal lattice vectors
     0.000000000  3.117691454  3.117691454    -0.160375075  0.160375075  0.160375075
     3.117691454  0.000000000  3.117691454     0.160375075 -0.160375075  0.160375075
     3.117691454  3.117691454  0.000000000     0.160375075  0.160375075 -0.160375075

  length of vectors
     4.409081537  4.409081537  4.409081537     0.277777778  0.277777778  0.277777778


 
 k-points in units of 2pi/SCALE and weight: Gamma centered Monkhorst-Pack           
   0.00000000  0.00000000  0.00000000       0.001
  -0.08333333  0.08333333  0.08333333       0.005
  -0.16666667  0.16666667  0.16666667       0.005
  -0.25000000  0.25000000  0.25000000       0.005
  -0.33333333  0.33333333  0.33333333       0.005
  -0.41666667  0.41666667  0.41666667       0.005
  -0.50000000  0.50000000  0.50000000       0.002
   0.00000000  0.00000000  0.16666667       0.003
  -0.08333333  0.08333333  0.25000000       0.014
  -0.16666667  0.16666667  0.33333333       0.014
  -0.25000000  0.25000000  0.41666667       0.014
  -0.33333333  0.33333333  0.50000000       0.014
  -0.41666667  0.41666667  0.58333333       0.014
   0.50000000 -0.50000000 -0.33333333       0.014
   0.41666667 -0.41666667 -0.25000000       0.014
   0.33333333 -0.33333333 -0.16666667       0.014
   0.25000000 -0.25000000 -0.08333333       0.014
   0.16666667 -0.16666667  0.00000000       0.007
   0.00000000  0.00000000  0.33333333       0.003
  -0.08333333  0.08333333  0.41666667       0.014
  -0.16666667  0.16666667  0.50000000       0.014
  -0.25000000  0.25000000  0.58333333       0.014
  -0.33333333  0.33333333  0.66666667       0.014
   0.58333333 -0.58333333 -0.25000000       0.014
   0.50000000 -0.50000000 -0.16666667       0.014
   0.41666667 -0.41666667 -0.08333333       0.014
   0.33333333 -0.33333333  0.00000000       0.007
   0.00000000  0.00000000  0.50000000       0.003
  -0.08333333  0.08333333  0.58333333       0.014
  -0.16666667  0.16666667  0.66666667       0.014
  -0.25000000  0.25000000  0.75000000       0.014
   0.66666667 -0.66666667 -0.16666667       0.014
   0.58333333 -0.58333333 -0.08333333       0.014
   0.50000000 -0.50000000  0.00000000       0.007
   0.00000000  0.00000000  0.66666667       0.003
  -0.08333333  0.08333333  0.75000000       0.014
  -0.16666667  0.16666667  0.83333333       0.014
   0.75000000 -0.75000000 -0.08333333       0.014
   0.66666667 -0.66666667  0.00000000       0.007
   0.00000000  0.00000000  0.83333333       0.003
  -0.08333333  0.08333333  0.91666667       0.014
   0.83333333 -0.83333333  0.00000000       0.007
   0.00000000  0.00000000  1.00000000       0.002
   0.00000000  0.16666667  0.33333333       0.014
  -0.08333333  0.25000000  0.41666667       0.028
  -0.16666667  0.33333333  0.50000000       0.028
  -0.25000000  0.41666667  0.58333333       0.028
   0.66666667 -0.50000000 -0.33333333       0.014
   0.00000000  0.16666667  0.50000000       0.014
  -0.08333333  0.25000000  0.58333333       0.028
  -0.16666667  0.33333333  0.66666667       0.028
   0.75000000 -0.58333333 -0.25000000       0.028
   0.66666667 -0.50000000 -0.16666667       0.028
   0.58333333 -0.41666667 -0.08333333       0.028
   0.50000000 -0.33333333  0.00000000       0.014
  -0.00000000  0.16666667  0.66666667       0.014
  -0.08333333  0.25000000  0.75000000       0.028
   0.83333333 -0.66666667 -0.16666667       0.028
   0.75000000 -0.58333333 -0.08333333       0.028
   0.66666667 -0.50000000  0.00000000       0.014
   0.00000000  0.16666667  0.83333333       0.014
   0.91666667 -0.75000000 -0.08333333       0.028
   0.83333333 -0.66666667  0.00000000       0.014
   1.00000000 -0.83333333  0.00000000       0.007
   0.00000000  0.33333333  0.66666667       0.014
   0.91666667 -0.58333333 -0.25000000       0.028
   0.83333333 -0.50000000 -0.16666667       0.014
   1.00000000 -0.66666667 -0.16666667       0.014
   0.91666667 -0.58333333 -0.08333333       0.028
   0.83333333 -0.50000000  0.00000000       0.014
   1.00000000 -0.66666667  0.00000000       0.007
   1.00000000 -0.50000000  0.00000000       0.003
 
 k-points in reciprocal lattice and weights: Gamma centered Monkhorst-Pack           
   0.00000000  0.00000000  0.00000000       0.001
   0.08333333  0.00000000  0.00000000       0.005
   0.16666667  0.00000000  0.00000000       0.005
   0.25000000  0.00000000  0.00000000       0.005
   0.33333333  0.00000000  0.00000000       0.005
   0.41666667  0.00000000  0.00000000       0.005
   0.50000000  0.00000000  0.00000000       0.002
   0.08333333  0.08333333  0.00000000       0.003
   0.16666667  0.08333333  0.00000000       0.014
   0.25000000  0.08333333  0.00000000       0.014
   0.33333333  0.08333333  0.00000000       0.014
   0.41666667  0.08333333  0.00000000       0.014
   0.50000000  0.08333333  0.00000000       0.014
  -0.41666667  0.08333333  0.00000000       0.014
  -0.33333333  0.08333333  0.00000000       0.014
  -0.25000000  0.08333333  0.00000000       0.014
  -0.16666667  0.08333333  0.00000000       0.014
  -0.08333333  0.08333333  0.00000000       0.007
   0.16666667  0.16666667  0.00000000       0.003
   0.25000000  0.16666667  0.00000000       0.014
   0.33333333  0.16666667  0.00000000       0.014
   0.41666667  0.16666667  0.00000000       0.014
   0.50000000  0.16666667  0.00000000       0.014
  -0.41666667  0.16666667  0.00000000       0.014
  -0.33333333  0.16666667  0.00000000       0.014
  -0.25000000  0.16666667  0.00000000       0.014
  -0.16666667  0.16666667  0.00000000       0.007
   0.25000000  0.25000000  0.00000000       0.003
   0.33333333  0.25000000  0.00000000       0.014
   0.41666667  0.25000000  0.00000000       0.014
   0.50000000  0.25000000  0.00000000       0.014
  -0.41666667  0.25000000  0.00000000       0.014
  -0.33333333  0.25000000  0.00000000       0.014
  -0.25000000  0.25000000  0.00000000       0.007
   0.33333333  0.33333333  0.00000000       0.003
   0.41666667  0.33333333  0.00000000       0.014
   0.50000000  0.33333333  0.00000000       0.014
  -0.41666667  0.33333333  0.00000000       0.014
  -0.33333333  0.33333333  0.00000000       0.007
   0.41666667  0.41666667  0.00000000       0.003
   0.50000000  0.41666667  0.00000000       0.014
  -0.41666667  0.41666667  0.00000000       0.007
   0.50000000  0.50000000  0.00000000       0.002
   0.25000000  0.16666667  0.08333333       0.014
   0.33333333  0.16666667  0.08333333       0.028
   0.41666667  0.16666667  0.08333333       0.028
   0.50000000  0.16666667  0.08333333       0.028
  -0.41666667  0.16666667  0.08333333       0.014
   0.33333333  0.25000000  0.08333333       0.014
   0.41666667  0.25000000  0.08333333       0.028
   0.50000000  0.25000000  0.08333333       0.028
  -0.41666667  0.25000000  0.08333333       0.028
  -0.33333333  0.25000000  0.08333333       0.028
  -0.25000000  0.25000000  0.08333333       0.028
  -0.16666667  0.25000000  0.08333333       0.014
   0.41666667  0.33333333  0.08333333       0.014
   0.50000000  0.33333333  0.08333333       0.028
  -0.41666667  0.33333333  0.08333333       0.028
  -0.33333333  0.33333333  0.08333333       0.028
  -0.25000000  0.33333333  0.08333333       0.014
   0.50000000  0.41666667  0.08333333       0.014
  -0.41666667  0.41666667  0.08333333       0.028
  -0.33333333  0.41666667  0.08333333       0.014
  -0.41666667  0.50000000  0.08333333       0.007
   0.50000000  0.33333333  0.16666667       0.014
  -0.41666667  0.33333333  0.16666667       0.028
  -0.33333333  0.33333333  0.16666667       0.014
  -0.41666667  0.41666667  0.16666667       0.014
  -0.33333333  0.41666667  0.16666667       0.028
  -0.25000000  0.41666667  0.16666667       0.014
  -0.33333333  0.50000000  0.16666667       0.007
  -0.25000000  0.50000000  0.25000000       0.003
 
 position of ions in fractional coordinates (direct lattice) 
   0.00000000  0.00000000  0.00000000
   0.25000000  0.25000000  0.25000000
 
 position of ions in cartesian coordinates  (Angst):
   0.00000000  0.00000000  0.00000000
   1.55884573  1.55884573  1.55884573
 


--------------------------------------------------------------------------------------------------------


 k-point  1 :   0.0000 0.0000 0.0000  plane waves:    2085
 k-point  2 :   0.0833 0.0000 0.0000  plane waves:    2031
 k-point  3 :   0.1667 0.0000 0.0000  plane waves:    2022
 k-point  4 :   0.2500 0.0000 0.0000  plane waves:    2009
 k-point  5 :   0.3333 0.0000 0.0000  plane waves:    2030
 k-point  6 :   0.4167 0.0000 0.0000  plane waves:    2021
 k-point  7 :   0.5000 0.0000 0.0000  plane waves:    2036
 k-point  8 :   0.0833 0.0833 0.0000  plane waves:    2025
 k-point  9 :   0.1667 0.0833 0.0000  plane waves:    2021
 k-point 10 :   0.2500 0.0833 0.0000  plane waves:    2017
 k-point 11 :   0.3333 0.0833 0.0000  plane waves:    2013
 k-point 12 :   0.4167 0.0833 0.0000  plane waves:    2015
 k-point 13 :   0.5000 0.0833 0.0000  plane waves:    2015
 k-point 14 :  -0.4167 0.0833 0.0000  plane waves:    2020
 k-point 15 :  -0.3333 0.0833 0.0000  plane waves:    2023
 k-point 16 :  -0.2500 0.0833 0.0000  plane waves:    2021
 k-point 17 :  -0.1667 0.0833 0.0000  plane waves:    2017
 k-point 18 :  -0.0833 0.0833 0.0000  plane waves:    2019
 k-point 19 :   0.1667 0.1667 0.0000  plane waves:    2017
 k-point 20 :   0.2500 0.1667 0.0000  plane waves:    2016
 k-point 21 :   0.3333 0.1667 0.0000  plane waves:    2020
 k-point 22 :   0.4167 0.1667 0.0000  plane waves:    2017
 k-point 23 :   0.5000 0.1667 0.0000  plane waves:    2018
 k-point 24 :  -0.4167 0.1667 0.0000  plane waves:    2014
 k-point 25 :  -0.3333 0.1667 0.0000  plane waves:    2020
 k-point 26 :  -0.2500 0.1667 0.0000  plane waves:    2016
 k-point 27 :  -0.1667 0.1667 0.0000  plane waves:    2023
 k-point 28 :   0.2500 0.2500 0.0000  plane waves:    2020
 k-point 29 :   0.3333 0.2500 0.0000  plane waves:    2022
 k-point 30 :   0.4167 0.2500 0.0000  plane waves:    2027
 k-point 31 :   0.5000 0.2500 0.0000  plane waves:    2020
 k-point 32 :  -0.4167 0.2500 0.0000  plane waves:    2025
 k-point 33 :  -0.3333 0.2500 0.0000  plane waves:    2021
 k-point 34 :  -0.2500 0.2500 0.0000  plane waves:    2017
 k-point 35 :   0.3333 0.3333 0.0000  plane waves:    2016
 k-point 36 :   0.4167 0.3333 0.0000  plane waves:    2029
 k-point 37 :   0.5000 0.3333 0.0000  plane waves:    2028
 k-point 38 :  -0.4167 0.3333 0.0000  plane waves:    2035
 k-point 39 :  -0.3333 0.3333 0.0000  plane waves:    2015
 k-point 40 :   0.4167 0.4167 0.0000  plane waves:    2024
 k-point 41 :   0.5000 0.4167 0.0000  plane waves:    2033
 k-point 42 :  -0.4167 0.4167 0.0000  plane waves:    2034
 k-point 43 :   0.5000 0.5000 0.0000  plane waves:    2044
 k-point 44 :   0.2500 0.1667 0.0833  plane waves:    2019
 k-point 45 :   0.3333 0.1667 0.0833  plane waves:    2021
 k-point 46 :   0.4167 0.1667 0.0833  plane waves:    2018
 k-point 47 :   0.5000 0.1667 0.0833  plane waves:    2027
 k-point 48 :  -0.4167 0.1667 0.0833  plane waves:    2020
 k-point 49 :   0.3333 0.2500 0.0833  plane waves:    2023
 k-point 50 :   0.4167 0.2500 0.0833  plane waves:    2024
 k-point 51 :   0.5000 0.2500 0.0833  plane waves:    2020
 k-point 52 :  -0.4167 0.2500 0.0833  plane waves:    2021
 k-point 53 :  -0.3333 0.2500 0.0833  plane waves:    2020
 k-point 54 :  -0.2500 0.2500 0.0833  plane waves:    2020
 k-point 55 :  -0.1667 0.2500 0.0833  plane waves:    2026
 k-point 56 :   0.4167 0.3333 0.0833  plane waves:    2025
 k-point 57 :   0.5000 0.3333 0.0833  plane waves:    2025
 k-point 58 :  -0.4167 0.3333 0.0833  plane waves:    2022
 k-point 59 :  -0.3333 0.3333 0.0833  plane waves:    2028
 k-point 60 :  -0.2500 0.3333 0.0833  plane waves:    2020
 k-point 61 :   0.5000 0.4167 0.0833  plane waves:    2027
 k-point 62 :  -0.4167 0.4167 0.0833  plane waves:    2029
 k-point 63 :  -0.3333 0.4167 0.0833  plane waves:    2022
 k-point 64 :  -0.4167 0.5000 0.0833  plane waves:    2040
 k-point 65 :   0.5000 0.3333 0.1667  plane waves:    2026
 k-point 66 :  -0.4167 0.3333 0.1667  plane waves:    2027
 k-point 67 :  -0.3333 0.3333 0.1667  plane waves:    2030
 k-point 68 :  -0.4167 0.4167 0.1667  plane waves:    2026
 k-point 69 :  -0.3333 0.4167 0.1667  plane waves:    2023
 k-point 70 :  -0.2500 0.4167 0.1667  plane waves:    2025
 k-point 71 :  -0.3333 0.5000 0.1667  plane waves:    2030
 k-point 72 :  -0.2500 0.5000 0.2500  plane waves:    1984

 maximum and minimum number of plane-waves per node :      2085     1984

 maximum number of plane-waves:      2085
 maximum index in each direction: 
   IXMAX=    9   IYMAX=    8   IZMAX=    8
   IXMIN=   -9   IYMIN=   -9   IZMIN=   -9

 WARNING: aliasing errors must be expected set NGX to  38 to avoid them
 WARNING: aliasing errors must be expected set NGY to  36 to avoid them
 WARNING: aliasing errors must be expected set NGZ to  36 to avoid them
 aliasing errors are usually negligible using standard VASP settings
 and one can safely disregard these warnings

 serial   3D FFT for wavefunctions
 parallel 3D FFT for charge:
    minimum data exchange during FFTs selected (reduces bandwidth)


 total amount of memory used by VASP on root node    49208. kBytes
========================================================================

   base      :      30000. kBytes
   nonl-proj :       9688. kBytes
   fftplans  :       1619. kBytes
   grid      :       3048. kBytes
   one-center:          6. kBytes
   wavefun   :       4847. kBytes
 
     INWAV:  cpu time    0.00: real time    0.00
 Broyden mixing: mesh for mixing (old mesh)
   NGX = 17   NGY = 17   NGZ = 17
  (NGX  = 56   NGY  = 56   NGZ  = 56)
  gives a total of   4913 points

 initial charge density was supplied:
 charge density of overlapping atoms calculated
 number of electron       8.0000000 magnetization 
 keeping initial charge density in first step


--------------------------------------------------------------------------------------------------------


 Maximum index for augmentation-charges         2984 (set IRDMAX)


--------------------------------------------------------------------------------------------------------


 First call to EWALD:  gamma=   0.451
 Maximum number of real-space cells 3x 3x 3
 Maximum number of reciprocal cells 3x 3x 3

 FEWALD executed in parallel
    FEWALD:  cpu time    0.00: real time    0.00


----------------------------------------- Iteration    1(   1)  ---------------------------------------


    POTLOK:  cpu time    0.02: real time    0.03
    SETDIJ:  cpu time    0.00: real time    0.00
     EDDAV:  cpu time    0.45: real time    0.46
       DOS:  cpu time    0.00: real time    0.00
    --------------------------------------------
      LOOP:  cpu time    0.48: real time    0.49

 eigenvalue-minimisations  :  1152
 total energy-change (2. order) : 0.9202224E+01  (-0.3173380E+03)
 number of electron       8.0000000 magnetization 
 augmentation part        8.0000000 magnetization 

 Free energy of the ion-electron system (eV)
  ---------------------------------------------------
  alpha Z        PSCENC =         2.22169494
  Ewald energy   TEWEN  =      -199.04149574
  -Hartree energ DENC   =       -18.07875178
  -exchange      EXHF   =         0.00000000
  -V(xc)+E(xc)   XCENC  =       -20.02076746
  PAW double counting   =        65.95520812      -30.76852678
  entropy T*S    EENTRO =        -0.00142290
  eigenvalues    EBANDS =         2.80316638
  atomic energy  EATOM  =       206.13311910
  ---------------------------------------------------
  free energy    TOTEN  =         9.20222389 eV

  energy without entropy =        9.20364678  energy(sigma->0) =        9.20293534


--------------------------------------------------------------------------------------------------------




----------------------------------------- Iteration    1(   2)  ---------------------------------------


     EDDAV:  cpu time    0.64: real time    0.64
       DOS:  cpu time    0.00: real time    0.00
    --------------------------------------------
      LOOP:  cpu time    0.64: real time    0.64

 eigenvalue-minimisations  :  1744
 total energy-change (2. order) :-0.1842900E+02  (-0.1794628E+02)
 number of electron       8.0000000 magnetization 
 augmentation part        8.0000000 magnetization 

 Free energy of the ion-electron system (eV)
  ---------------------------------------------------
  alpha Z        PSCENC =         2.22169494
  Ewald energy   TEWEN  =      -199.04149574
  -Hartree energ DENC   =       -18.07875178
  -exchange      EXHF   =         0.00000000
  -V(xc)+E(xc)   XCENC  =       -20.02076746
  PAW double counting   =        65.95520812      -30.76852678
  entropy T*S    EENTRO =        -0.00035195
  eigenvalues    EBANDS =       -15.62690585
  atomic energy  EATOM  =       206.13311910
  ---------------------------------------------------
  free energy    TOTEN  =        -9.22677740 eV

  energy without entropy =       -9.22642545  energy(sigma->0) =       -9.22660143


--------------------------------------------------------------------------------------------------------




----------------------------------------- Iteration    1(   3)  ---------------------------------------


     EDDAV:  cpu time    0.60: real time    0.60
       DOS:  cpu time    0.00: real time    0.00
    --------------------------------------------
      LOOP:  cpu time    0.60: real time    0.61

 eigenvalue-minimisations  :  1624
 total energy-change (2. order) :-0.3905752E+00  (-0.3891338E+00)
 number of electron       8.0000000 magnetization 
 augmentation part        8.0000000 magnetization 

 Free energy of the ion-electron system (eV)
  ---------------------------------------------------
  alpha Z        PSCENC =         2.22169494
  Ewald energy   TEWEN  =      -199.04149574
  -Hartree energ DENC   =       -18.07875178
  -exchange      EXHF   =         0.00000000
  -V(xc)+E(xc)   XCENC  =       -20.02076746
  PAW double counting   =        65.95520812      -30.76852678
  entropy T*S    EENTRO =        -0.00009077
  eigenvalues    EBANDS =       -16.01774222
  atomic energy  EATOM  =       206.13311910
  ---------------------------------------------------
  free energy    TOTEN  =        -9.61735259 eV

  energy without entropy =       -9.61726182  energy(sigma->0) =       -9.61730720


--------------------------------------------------------------------------------------------------------




----------------------------------------- Iteration    1(   4)  ---------------------------------------


     EDDAV:  cpu time    0.64: real time    0.65
       DOS:  cpu time    0.00: real time    0.00
    --------------------------------------------
      LOOP:  cpu time    0.64: real time    0.65

 eigenvalue-minimisations  :  1760
 total energy-change (2. order) :-0.1578979E-02  (-0.1578930E-02)
 number of electron       8.0000000 magnetization 
 augmentation part        8.0000000 magnetization 

 Free energy of the ion-electron system (eV)
  ---------------------------------------------------
  alpha Z        PSCENC =         2.22169494
  Ewald energy   TEWEN  =      -199.04149574
  -Hartree energ DENC   =       -18.07875178
  -exchange      EXHF   =         0.00000000
  -V(xc)+E(xc)   XCENC  =       -20.02076746
  PAW double counting   =        65.95520812      -30.76852678
  entropy T*S    EENTRO =        -0.00008991
  eigenvalues    EBANDS =       -16.01932206
  atomic energy  EATOM  =       206.13311910
  ---------------------------------------------------
  free energy    TOTEN  =        -9.61893157 eV

  energy without entropy =       -9.61884166  energy(sigma->0) =       -9.61888661


--------------------------------------------------------------------------------------------------------




----------------------------------------- Iteration    1(   5)  ---------------------------------------


     EDDAV:  cpu time    0.58: real time    0.58
       DOS:  cpu time    0.00: real time    0.00
    CHARGE:  cpu time    0.02: real time    0.03
    MIXING:  cpu time    0.00: real time    0.00
    --------------------------------------------
      LOOP:  cpu time    0.60: real time    0.62

 eigenvalue-minimisations  :  1560
 total energy-change (2. order) :-0.5191045E-05  (-0.5191153E-05)
 number of electron       7.9999999 magnetization 
 augmentation part       -0.4744622 magnetization 

 Broyden mixing:
  rms(total) = 0.20816E+00    rms(broyden)= 0.20816E+00
  rms(prec ) = 0.54172E+00
  weight for this iteration     100.00

 Free energy of the ion-electron system (eV)
  ---------------------------------------------------
  alpha Z        PSCENC =         2.22169494
  Ewald energy   TEWEN  =      -199.04149574
  -Hartree energ DENC   =       -18.07875178
  -exchange      EXHF   =         0.00000000
  -V(xc)+E(xc)   XCENC  =       -20.02076746
  PAW double counting   =        65.95520812      -30.76852678
  entropy T*S    EENTRO =        -0.00008991
  eigenvalues    EBANDS =       -16.01932725
  atomic energy  EATOM  =       206.13311910
  ---------------------------------------------------
  free energy    TOTEN  =        -9.61893676 eV

  energy without entropy =       -9.61884685  energy(sigma->0) =       -9.61889180


--------------------------------------------------------------------------------------------------------




----------------------------------------- Iteration    1(   6)  ---------------------------------------


    POTLOK:  cpu time    0.02: real time    0.03
    SETDIJ:  cpu time    0.00: real time    0.00
     EDDAV:  cpu time    0.54: real time    0.54
       DOS:  cpu time    0.00: real time    0.00
    CHARGE:  cpu time    0.02: real time    0.03
    MIXING:  cpu time    0.00: real time    0.00
    --------------------------------------------
      LOOP:  cpu time    0.59: real time    0.60

 eigenvalue-minimisations  :  1432
 total energy-change (2. order) : 0.1816776E-01  (-0.7340481E-03)
 number of electron       7.9999999 magnetization 
 augmentation part       -0.4738083 magnetization 

 Broyden mixing:
  rms(total) = 0.12998E+00    rms(broyden)= 0.12998E+00
  rms(prec ) = 0.34115E+00
  weight for this iteration     100.00

 eigenvalues of (default mixing * dielectric matrix)
  average eigenvalue GAMMA=   2.6492
  2.6492

 Free energy of the ion-electron system (eV)
  ---------------------------------------------------
  alpha Z        PSCENC =         2.22169494
  Ewald energy   TEWEN  =      -199.04149574
  -Hartree energ DENC   =       -18.80952784
  -exchange      EXHF   =         0.00000000
  -V(xc)+E(xc)   XCENC  =       -19.91162460
  PAW double counting   =        66.16574298      -30.97858626
  entropy T*S    EENTRO =        -0.00008943
  eigenvalues    EBANDS =       -15.38000217
  atomic energy  EATOM  =       206.13311910
  ---------------------------------------------------
  free energy    TOTEN  =        -9.60076900 eV

  energy without entropy =       -9.60067957  energy(sigma->0) =       -9.60072429


--------------------------------------------------------------------------------------------------------




----------------------------------------- Iteration    1(   7)  ---------------------------------------


    POTLOK:  cpu time    0.02: real time    0.03
    SETDIJ:  cpu time    0.00: real time    0.00
     EDDAV:  cpu time    0.49: real time    0.49
       DOS:  cpu time    0.00: real time    0.00
    CHARGE:  cpu time    0.03: real time    0.03
    MIXING:  cpu time    0.00: real time    0.00
    --------------------------------------------
      LOOP:  cpu time    0.54: real time    0.55

 eigenvalue-minimisations  :  1256
 total energy-change (2. order) : 0.1421177E-01  (-0.2536954E-02)
 number of electron       7.9999999 magnetization 
 augmentation part       -0.4737214 magnetization 

 Broyden mixing:
  rms(total) = 0.84623E-02    rms(broyden)= 0.84622E-02
  rms(prec ) = 0.20868E-01
  weight for this iteration     100.00

 eigenvalues of (default mixing * dielectric matrix)
  average eigenvalue GAMMA=   2.6186
  2.6186  2.6186

 Free energy of the ion-electron system (eV)
  ---------------------------------------------------
  alpha Z        PSCENC =         2.22169494
  Ewald energy   TEWEN  =      -199.04149574
  -Hartree energ DENC   =       -20.28645085
  -exchange      EXHF   =         0.00000000
  -V(xc)+E(xc)   XCENC  =       -19.68652322
  PAW double counting   =        66.21235648      -31.01730907
  entropy T*S    EENTRO =        -0.00008872
  eigenvalues    EBANDS =       -14.12186017
  atomic energy  EATOM  =       206.13311910
  ---------------------------------------------------
  free energy    TOTEN  =        -9.58655723 eV

  energy without entropy =       -9.58646852  energy(sigma->0) =       -9.58651287


--------------------------------------------------------------------------------------------------------




----------------------------------------- Iteration    1(   8)  ---------------------------------------


    POTLOK:  cpu time    0.02: real time    0.03
    SETDIJ:  cpu time    0.00: real time    0.00
     EDDAV:  cpu time    0.48: real time    0.48
       DOS:  cpu time    0.00: real time    0.00
    CHARGE:  cpu time    0.02: real time    0.03
    MIXING:  cpu time    0.00: real time    0.00
    --------------------------------------------
      LOOP:  cpu time    0.53: real time    0.54

 eigenvalue-minimisations  :  1224
 total energy-change (2. order) :-0.1377666E-02  (-0.1812259E-03)
 number of electron       7.9999999 magnetization 
 augmentation part       -0.4737855 magnetization 

 Broyden mixing:
  rms(total) = 0.27810E-02    rms(broyden)= 0.27810E-02
  rms(prec ) = 0.93094E-02
  weight for this iteration     100.00

 eigenvalues of (default mixing * dielectric matrix)
  average eigenvalue GAMMA=   2.2549
  1.0142  2.6033  3.1471

 Free energy of the ion-electron system (eV)
  ---------------------------------------------------
  alpha Z        PSCENC =         2.22169494
  Ewald energy   TEWEN  =      -199.04149574
  -Hartree energ DENC   =       -20.29732975
  -exchange      EXHF   =         0.00000000
  -V(xc)+E(xc)   XCENC  =       -19.69037870
  PAW double counting   =        65.86295934      -30.66143424
  entropy T*S    EENTRO =        -0.00008840
  eigenvalues    EBANDS =       -14.11498146
  atomic energy  EATOM  =       206.13311910
  ---------------------------------------------------
  free energy    TOTEN  =        -9.58793490 eV

  energy without entropy =       -9.58784650  energy(sigma->0) =       -9.58789070


--------------------------------------------------------------------------------------------------------




----------------------------------------- Iteration    1(   9)  ---------------------------------------


    POTLOK:  cpu time    0.02: real time    0.03
    SETDIJ:  cpu time    0.00: real time    0.00
     EDDAV:  cpu time    0.61: real time    0.61
       DOS:  cpu time    0.00: real time    0.00
    CHARGE:  cpu time    0.03: real time    0.03
    MIXING:  cpu time    0.00: real time    0.00
    --------------------------------------------
      LOOP:  cpu time    0.66: real time    0.67

 eigenvalue-minimisations  :  1656
 total energy-change (2. order) :-0.1431754E-03  (-0.2476451E-04)
 number of electron       7.9999999 magnetization 
 augmentation part       -0.4737922 magnetization 

 Broyden mixing:
  rms(total) = 0.69781E-03    rms(broyden)= 0.69781E-03
  rms(prec ) = 0.17724E-02
  weight for this iteration     100.00

 eigenvalues of (default mixing * dielectric matrix)
  average eigenvalue GAMMA=   2.4203
  0.9756  3.4857  2.6099  2.6099

 Free energy of the ion-electron system (eV)
  ---------------------------------------------------
  alpha Z        PSCENC =         2.22169494
  Ewald energy   TEWEN  =      -199.04149574
  -Hartree energ DENC   =       -20.36186648
  -exchange      EXHF   =         0.00000000
  -V(xc)+E(xc)   XCENC  =       -19.68236679
  PAW double counting   =        65.78781222      -30.58477343
  entropy T*S    EENTRO =        -0.00008827
  eigenvalues    EBANDS =       -14.06011363
  atomic energy  EATOM  =       206.13311910
  ---------------------------------------------------
  free energy    TOTEN  =        -9.58807807 eV

  energy without entropy =       -9.58798980  energy(sigma->0) =       -9.58803394


--------------------------------------------------------------------------------------------------------




----------------------------------------- Iteration    1(  10)  ---------------------------------------


    POTLOK:  cpu time    0.02: real time    0.03
    SETDIJ:  cpu time    0.00: real time    0.00
     EDDAV:  cpu time    0.46: real time    0.46
       DOS:  cpu time    0.00: real time    0.00
    CHARGE:  cpu time    0.03: real time    0.03
    MIXING:  cpu time    0.00: real time    0.00
    --------------------------------------------
      LOOP:  cpu time    0.51: real time    0.52

 eigenvalue-minimisations  :  1160
 total energy-change (2. order) :-0.7551363E-05  (-0.1452006E-05)
 number of electron       7.9999999 magnetization 
 augmentation part       -0.4737087 magnetization 

 Broyden mixing:
  rms(total) = 0.89259E-04    rms(broyden)= 0.89258E-04
  rms(prec ) = 0.30181E-03
  weight for this iteration     100.00

 eigenvalues of (default mixing * dielectric matrix)
  average eigenvalue GAMMA=   2.1451
  3.4875  2.7396  2.4374  0.9476  1.1137

 Free energy of the ion-electron system (eV)
  ---------------------------------------------------
  alpha Z        PSCENC =         2.22169494
  Ewald energy   TEWEN  =      -199.04149574
  -Hartree energ DENC   =       -20.37231963
  -exchange      EXHF   =         0.00000000
  -V(xc)+E(xc)   XCENC  =       -19.68143287
  PAW double counting   =        65.83967525      -30.63792595
  entropy T*S    EENTRO =        -0.00008825
  eigenvalues    EBANDS =       -14.04931248
  atomic energy  EATOM  =       206.13311910
  ---------------------------------------------------
  free energy    TOTEN  =        -9.58808562 eV

  energy without entropy =       -9.58799738  energy(sigma->0) =       -9.58804150


--------------------------------------------------------------------------------------------------------




----------------------------------------- Iteration    1(  11)  ---------------------------------------


    POTLOK:  cpu time    0.02: real time    0.03
    SETDIJ:  cpu time    0.00: real time    0.00
     EDDAV:  cpu time    0.66: real time    0.66
       DOS:  cpu time    0.00: real time    0.00
    CHARGE:  cpu time    0.03: real time    0.03
    MIXING:  cpu time    0.00: real time    0.00
    --------------------------------------------
      LOOP:  cpu time    0.71: real time    0.72

 eigenvalue-minimisations  :  1816
 total energy-change (2. order) : 0.3048878E-06  (-0.2202312E-07)
 number of electron       7.9999999 magnetization 
 augmentation part       -0.4737166 magnetization 

 Broyden mixing:
  rms(total) = 0.46110E-04    rms(broyden)= 0.46110E-04
  rms(prec ) = 0.98952E-04
  weight for this iteration     100.00

 eigenvalues of (default mixing * dielectric matrix)
  average eigenvalue GAMMA=   2.1706
  3.5314  0.9954  0.9954  2.8390  2.5407  2.1215

 Free energy of the ion-electron system (eV)
  ---------------------------------------------------
  alpha Z        PSCENC =         2.22169494
  Ewald energy   TEWEN  =      -199.04149574
  -Hartree energ DENC   =       -20.37019032
  -exchange      EXHF   =         0.00000000
  -V(xc)+E(xc)   XCENC  =       -19.68167546
  PAW double counting   =        65.83359222      -30.63166256
  entropy T*S    EENTRO =        -0.00008825
  eigenvalues    EBANDS =       -14.05137927
  atomic energy  EATOM  =       206.13311910
  ---------------------------------------------------
  free energy    TOTEN  =        -9.58808532 eV

  energy without entropy =       -9.58799707  energy(sigma->0) =       -9.58804120


--------------------------------------------------------------------------------------------------------




----------------------------------------- Iteration    1(  12)  ---------------------------------------


    POTLOK:  cpu time    0.02: real time    0.03
    SETDIJ:  cpu time    0.00: real time    0.00
     EDDAV:  cpu time    0.46: real time    0.47
       DOS:  cpu time    0.00: real time    0.00
    CHARGE:  cpu time    0.03: real time    0.03
    MIXING:  cpu time    0.00: real time    0.00
    --------------------------------------------
      LOOP:  cpu time    0.52: real time    0.54

 eigenvalue-minimisations  :  1232
 total energy-change (2. order) : 0.8935010E-07  (-0.7050431E-08)
 number of electron       7.9999999 magnetization 
 augmentation part       -0.4737194 magnetization 

 Broyden mixing:
  rms(total) = 0.63837E-05    rms(broyden)= 0.63837E-05
  rms(prec ) = 0.15239E-04
  weight for this iteration     100.00

 eigenvalues of (default mixing * dielectric matrix)
  average eigenvalue GAMMA=   2.0255
  3.5183  2.8659  2.4757  2.4097  0.9719  0.9685  0.9685

 Free energy of the ion-electron system (eV)
  ---------------------------------------------------
  alpha Z        PSCENC =         2.22169494
  Ewald energy   TEWEN  =      -199.04149574
  -Hartree energ DENC   =       -20.37007317
  -exchange      EXHF   =         0.00000000
  -V(xc)+E(xc)   XCENC  =       -19.68163284
  PAW double counting   =        65.83220022      -30.63017069
  entropy T*S    EENTRO =        -0.00008825
  eigenvalues    EBANDS =       -14.05163881
  atomic energy  EATOM  =       206.13311910
  ---------------------------------------------------
  free energy    TOTEN  =        -9.58808523 eV

  energy without entropy =       -9.58799698  energy(sigma->0) =       -9.58804111


--------------------------------------------------------------------------------------------------------




----------------------------------------- Iteration    1(  13)  ---------------------------------------


    POTLOK:  cpu time    0.02: real time    0.03
    SETDIJ:  cpu time    0.00: real time    0.00
     EDDAV:  cpu time    0.64: real time    0.66
       DOS:  cpu time    0.00: real time    0.00
    CHARGE:  cpu time    0.03: real time    0.03
    MIXING:  cpu time    0.00: real time    0.00
    --------------------------------------------
      LOOP:  cpu time    0.70: real time    0.72

 eigenvalue-minimisations  :  1824
 total energy-change (2. order) : 0.1929479E-07  (-0.1058278E-09)
 number of electron       7.9999999 magnetization 
 augmentation part       -0.4737204 magnetization 

 Broyden mixing:
  rms(total) = 0.24542E-05    rms(broyden)= 0.24542E-05
  rms(prec ) = 0.38040E-05
  weight for this iteration     100.00

 eigenvalues of (default mixing * dielectric matrix)
  average eigenvalue GAMMA=   2.1112
  3.5345  2.8315  2.5230  2.4924  2.4924  0.9881  0.9881  1.0395

 Free energy of the ion-electron system (eV)
  ---------------------------------------------------
  alpha Z        PSCENC =         2.22169494
  Ewald energy   TEWEN  =      -199.04149574
  -Hartree energ DENC   =       -20.37000594
  -exchange      EXHF   =         0.00000000
  -V(xc)+E(xc)   XCENC  =       -19.68163426
  PAW double counting   =        65.83176611      -30.62972256
  entropy T*S    EENTRO =        -0.00008825
  eigenvalues    EBANDS =       -14.05171863
  atomic energy  EATOM  =       206.13311910
  ---------------------------------------------------
  free energy    TOTEN  =        -9.58808521 eV

  energy without entropy =       -9.58799696  energy(sigma->0) =       -9.58804109


--------------------------------------------------------------------------------------------------------




----------------------------------------- Iteration    1(  14)  ---------------------------------------


    POTLOK:  cpu time    0.02: real time    0.03
    SETDIJ:  cpu time    0.00: real time    0.00
     EDDAV:  cpu time    0.44: real time    0.45
       DOS:  cpu time    0.00: real time    0.00
    CHARGE:  cpu time    0.02: real time    0.03
    MIXING:  cpu time    0.00: real time    0.00
    --------------------------------------------
      LOOP:  cpu time    0.50: real time    0.52

 eigenvalue-minimisations  :  1168
 total energy-change (2. order) :-0.7071520E-08  (-0.1586942E-10)
 number of electron       7.9999999 magnetization 
 augmentation part       -0.4737202 magnetization 

 Broyden mixing:
  rms(total) = 0.78014E-06    rms(broyden)= 0.78014E-06
  rms(prec ) = 0.23300E-05
  weight for this iteration     100.00

 eigenvalues of (default mixing * dielectric matrix)
  average eigenvalue GAMMA=   1.9974
  3.5384  2.9238  2.6851  2.5521  2.1983  1.0640  1.0572  0.9790  0.9790

 Free energy of the ion-electron system (eV)
  ---------------------------------------------------
  alpha Z        PSCENC =         2.22169494
  Ewald energy   TEWEN  =      -199.04149574
  -Hartree energ DENC   =       -20.37003008
  -exchange      EXHF   =         0.00000000
  -V(xc)+E(xc)   XCENC  =       -19.68163432
  PAW double counting   =        65.83175274      -30.62971569
  entropy T*S    EENTRO =        -0.00008825
  eigenvalues    EBANDS =       -14.05168794
  atomic energy  EATOM  =       206.13311910
  ---------------------------------------------------
  free energy    TOTEN  =        -9.58808522 eV

  energy without entropy =       -9.58799697  energy(sigma->0) =       -9.58804109


--------------------------------------------------------------------------------------------------------




----------------------------------------- Iteration    1(  15)  ---------------------------------------


    POTLOK:  cpu time    0.02: real time    0.03
    SETDIJ:  cpu time    0.00: real time    0.00
     EDDAV:  cpu time    0.31: real time    0.32
       DOS:  cpu time    0.00: real time    0.00
    CHARGE:  cpu time    0.02: real time    0.03
    MIXING:  cpu time    0.00: real time    0.00
    --------------------------------------------
      LOOP:  cpu time    0.36: real time    0.38

 eigenvalue-minimisations  :   664
 total energy-change (2. order) : 0.3422656E-08  (-0.1654404E-11)
 number of electron       7.9999999 magnetization 
 augmentation part       -0.4737203 magnetization 

 Broyden mixing:
  rms(total) = 0.93733E-07    rms(broyden)= 0.93725E-07
  rms(prec ) = 0.16501E-06
  weight for this iteration     100.00

 eigenvalues of (default mixing * dielectric matrix)
  average eigenvalue GAMMA=   2.0353
  3.5438  2.9006  2.8055  2.4469  2.3028  2.3028  0.9622  1.0046  1.0046  1.0797

 Free energy of the ion-electron system (eV)
  ---------------------------------------------------
  alpha Z        PSCENC =         2.22169494
  Ewald energy   TEWEN  =      -199.04149574
  -Hartree energ DENC   =       -20.37001576
  -exchange      EXHF   =         0.00000000
  -V(xc)+E(xc)   XCENC  =       -19.68163519
  PAW double counting   =        65.83167613      -30.62963624
  entropy T*S    EENTRO =        -0.00008825
  eigenvalues    EBANDS =       -14.05170422
  atomic energy  EATOM  =       206.13311910
  ---------------------------------------------------
  free energy    TOTEN  =        -9.58808521 eV

  energy without entropy =       -9.58799697  energy(sigma->0) =       -9.58804109


--------------------------------------------------------------------------------------------------------




----------------------------------------- Iteration    1(  16)  ---------------------------------------


    POTLOK:  cpu time    0.02: real time    0.03
    SETDIJ:  cpu time    0.00: real time    0.00
     EDDAV:  cpu time    0.29: real time    0.29
       DOS:  cpu time    0.00: real time    0.00
    CHARGE:  cpu time    0.03: real time    0.03
    MIXING:  cpu time    0.00: real time    0.00
    --------------------------------------------
      LOOP:  cpu time    0.34: real time    0.35

 eigenvalue-minimisations  :   576
 total energy-change (2. order) :-0.1199112E-09  (-0.7975873E-13)
 number of electron       7.9999999 magnetization 
 augmentation part       -0.4737203 magnetization 

 Broyden mixing:
  rms(total) = 0.66725E-07    rms(broyden)= 0.66716E-07
  rms(prec ) = 0.16102E-06
  weight for this iteration     100.00

 eigenvalues of (default mixing * dielectric matrix)
  average eigenvalue GAMMA=   1.9559
  3.5379  3.0223  2.8014  2.5450  2.5450  2.2333  1.0541  1.0082  1.0082  0.9586
  0.8011

 Free energy of the ion-electron system (eV)
  ---------------------------------------------------
  alpha Z        PSCENC =         2.22169494
  Ewald energy   TEWEN  =      -199.04149574
  -Hartree energ DENC   =       -20.37001663
  -exchange      EXHF   =         0.00000000
  -V(xc)+E(xc)   XCENC  =       -19.68163504
  PAW double counting   =        65.83168651      -30.62964673
  entropy T*S    EENTRO =        -0.00008825
  eigenvalues    EBANDS =       -14.05170339
  atomic energy  EATOM  =       206.13311910
  ---------------------------------------------------
  free energy    TOTEN  =        -9.58808521 eV

  energy without entropy =       -9.58799697  energy(sigma->0) =       -9.58804109


--------------------------------------------------------------------------------------------------------




----------------------------------------- Iteration    1(  17)  ---------------------------------------


    POTLOK:  cpu time    0.02: real time    0.03
    SETDIJ:  cpu time    0.00: real time    0.00
     EDDAV:  cpu time    0.29: real time    0.29
       DOS:  cpu time    0.00: real time    0.00
    --------------------------------------------
      LOOP:  cpu time    0.31: real time    0.33

 eigenvalue-minimisations  :   576
 total energy-change (2. order) :-0.6571099E-10  ( 0.2282490E-14)
 number of electron       7.9999999 magnetization 
 augmentation part       -0.4737203 magnetization 

 Free energy of the ion-electron system (eV)
  ---------------------------------------------------
  alpha Z        PSCENC =         2.22169494
  Ewald energy   TEWEN  =      -199.04149574
  -Hartree energ DENC   =       -20.37001623
  -exchange      EXHF   =         0.00000000
  -V(xc)+E(xc)   XCENC  =       -19.68163515
  PAW double counting   =        65.83169143      -30.62965180
  entropy T*S    EENTRO =        -0.00008825
  eigenvalues    EBANDS =       -14.05170353
  atomic energy  EATOM  =       206.13311910
  ---------------------------------------------------
  free energy    TOTEN  =        -9.58808521 eV

  energy without entropy =       -9.58799697  energy(sigma->0) =       -9.58804109


--------------------------------------------------------------------------------------------------------




 average (electrostatic) potential at core
  the test charge radii are     0.9892
  (the norm of the test charge is              1.0000)
       1 -87.2465       2 -87.2465
 
 
 
 E-fermi :   2.3796     XC(G=0):  -7.8628     alpha+bet : -7.9146


 k-point     1 :       0.0000    0.0000    0.0000
  band No.  band energies     occupation 
      1      -7.2416      2.00000
      2       1.6807      2.00000
      3       2.3532      1.48352
      4       2.3532      1.48352
      5       2.3532      1.48352
      6       4.6519      0.00000
      7       4.6519      0.00000
      8       4.6519      0.00000

 k-point     2 :       0.0833    0.0000    0.0000
  band No.  band energies     occupation 
      1      -7.1795      2.00000
      2       0.8899      2.00000
      3       2.2627      1.98153
      4       2.2627      1.98153
      5       2.8592      0.00000
      6       4.7869      0.00000
      7       4.7869      0.00000
      8       4.8441      0.00000

 k-point     3 :       0.1667    0.0000    0.0000
  band No.  band energies     occupation 
      1      -6.9962      2.00000
      2      -0.2050      2.00000
      3       2.0570      2.00000
      4       2.0570      2.00000
      5       3.0533      0.00000
      6       5.0944      0.00000
      7       5.0944      0.00000
      8       5.5522      0.00000

 k-point     4 :       0.2500    0.0000    0.0000
  band No.  band energies     occupation 
      1      -6.7034      2.00000
      2      -1.2680      2.00000
      3       1.8359      2.00000
      4       1.8359      2.00000
      5       2.9276      0.00000
      6       5.3901      0.00000
      7       5.3901      0.00000
      8       6.6025      0.00000

 k-point     5 :       0.3333    0.0000    0.0000
  band No.  band energies     occupation 
      1      -6.3309      2.00000
      2      -2.2143      2.00000
      3       1.6560      2.00000
      4       1.6560      2.00000
      5       2.7514      0.00000
      6       5.5517      0.00000
      7       5.5517      0.00000
      8       7.7484      0.00000

 k-point     6 :       0.4167    0.0000    0.0000
  band No.  band energies     occupation 
      1      -5.9590      2.00000
      2      -2.9386      2.00000
      3       1.5420      2.00000
      4       1.5420      2.00000
      5       2.6247      0.00011
      6       5.5952      0.00000
      7       5.5952      0.00000
      8       8.7427      0.00000

 k-point     7 :       0.5000    0.0000    0.0000
  band No.  band energies     occupation 
      1      -5.7803      2.00000
      2      -3.2360      2.00000
      3       1.5031      2.00000
      4       1.5031      2.00000
      5       2.5798      0.00067
      6       5.5982      0.00000
      7       5.5982      0.00000
      8       9.0786      0.00000

 k-point     8 :       0.0833    0.0833    0.0000
  band No.  band energies     occupation 
      1      -7.1586      2.00000
      2       0.7867      2.00000
      3       2.0993      1.99997
      4       2.0993      1.99997
      5       3.2229      0.00000
      6       4.4712      0.00000
      7       5.0089      0.00000
      8       5.0089      0.00000

 k-point     9 :       0.1667    0.0833    0.0000
  band No.  band energies     occupation 
      1      -7.0150      2.00000
      2      -0.0265      2.00000
      3       1.8613      2.00000
      4       1.8915      2.00000
      5       3.5755      0.00000
      6       4.5080      0.00000
      7       5.3747      0.00000
      8       5.5240      0.00000

 k-point    10 :       0.2500    0.0833    0.0000
  band No.  band energies     occupation 
      1      -6.7569      2.00000
      2      -1.0140      2.00000
      3       1.6265      2.00000
      4       1.6389      2.00000
      5       3.5340      0.00000
      6       4.8698      0.00000
      7       5.7102      0.00000
      8       6.3015      0.00000

 k-point    11 :       0.3333    0.0833    0.0000
  band No.  band energies     occupation 
      1      -6.4057      2.00000
      2      -1.9632      2.00000
      3       1.3569      2.00000
      4       1.4779      2.00000
      5       3.3669      0.00000
      6       5.2281      0.00000
      7       5.8826      0.00000
      8       7.1310      0.00000

 k-point    12 :       0.4167    0.0833    0.0000
  band No.  band energies     occupation 
      1      -6.0182      2.00000
      2      -2.7566      2.00000
      3       1.1409      2.00000
      4       1.3972      2.00000
      5       3.2196      0.00000
      6       5.4240      0.00000
      7       5.8895      0.00000
      8       8.0092      0.00000

 k-point    13 :       0.5000    0.0833    0.0000
  band No.  band energies     occupation 
      1      -5.7453      2.00000
      2      -3.2178      2.00000
      3       1.0050      2.00000
      4       1.4018      2.00000
      5       3.1376      0.00000
      6       5.5261      0.00000
      7       5.8180      0.00000
      8       8.7833      0.00000

 k-point    14 :      -0.4167    0.0833    0.0000
  band No.  band energies     occupation 
      1      -5.8091      2.00000
      2      -3.1154      2.00000
      3       0.9618      2.00000
      4       1.4885      2.00000
      5       3.1355      0.00000
      6       5.6116      0.00000
      7       5.7273      0.00000
      8       8.7266      0.00000

 k-point    15 :      -0.3333    0.0833    0.0000
  band No.  band energies     occupation 
      1      -6.1464      2.00000
      2      -2.5152      2.00000
      3       1.0182      2.00000
      4       1.6476      2.00000
      5       3.2106      0.00000
      6       5.6071      0.00000
      7       5.6683      0.00000
      8       7.8544      0.00000

 k-point    16 :      -0.2500    0.0833    0.0000
  band No.  band energies     occupation 
      1      -6.5320      2.00000
      2      -1.6578      2.00000
      3       1.1792      2.00000
      4       1.8600      2.00000
      5       3.3372      0.00000
      6       5.3992      0.00000
      7       5.5801      0.00000
      8       6.8954      0.00000

 k-point    17 :      -0.1667    0.0833    0.0000
  band No.  band energies     occupation 
      1      -6.8557      2.00000
      2      -0.6927      2.00000
      3       1.4496      2.00000
      4       2.0871      1.99998
      5       3.4306      0.00000
      6       5.0967      0.00000
      7       5.2241      0.00000
      8       6.0898      0.00000

 k-point    18 :      -0.0833    0.0833    0.0000
  band No.  band energies     occupation 
      1      -7.0767      2.00000
      2       0.2433      2.00000
      3       1.8384      2.00000
      4       2.2542      1.98685
      5       3.2670      0.00000
      6       4.8322      0.00000
      7       4.8631      0.00000
      8       5.3985      0.00000

 k-point    19 :       0.1667    0.1667    0.0000
  band No.  band energies     occupation 
      1      -6.9111      2.00000
      2      -0.3488      2.00000
      3       1.6046      2.00000
      4       1.6046      2.00000
      5       4.0837      0.00000
      6       4.1800      0.00000
      7       5.8087      0.00000
      8       5.8087      0.00000

 k-point    20 :       0.2500    0.1667    0.0000
  band No.  band energies     occupation 
      1      -6.6896      2.00000
      2      -1.0520      2.00000
      3       1.3099      2.00000
      4       1.3731      2.00000
      5       4.0533      0.00000
      6       4.4263      0.00000
      7       6.2290      0.00000
      8       6.3092      0.00000

 k-point    21 :       0.3333    0.1667    0.0000
  band No.  band energies     occupation 
      1      -6.3657      2.00000
      2      -1.8722      2.00000
      3       0.9477      2.00000
      4       1.2114      2.00000
      5       4.0070      0.00000
      6       4.8317      0.00000
      7       6.4794      0.00000
      8       6.6006      0.00000

 k-point    22 :       0.4167    0.1667    0.0000
  band No.  band energies     occupation 
      1      -5.9784      2.00000
      2      -2.6446      2.00000
      3       0.6161      2.00000
      4       1.1385      2.00000
      5       3.8822      0.00000
      6       5.3113      0.00000
      7       6.5121      0.00000
      8       6.9441      0.00000

 k-point    23 :       0.5000    0.1667    0.0000
  band No.  band energies     occupation 
      1      -5.6380      2.00000
      2      -3.2029      2.00000
      3       0.3752      2.00000
      4       1.1598      2.00000
      5       3.7946      0.00000
      6       5.5729      0.00000
      7       6.4080      0.00000
      8       7.6824      0.00000

 k-point    24 :      -0.4167    0.1667    0.0000
  band No.  band energies     occupation 
      1      -5.5795      2.00000
      2      -3.2895      2.00000
      3       0.2520      2.00000
      4       1.2713      2.00000
      5       3.7753      0.00000
      6       5.7155      0.00000
      7       6.2467      0.00000
      8       8.3883      0.00000

 k-point    25 :      -0.3333    0.1667    0.0000
  band No.  band energies     occupation 
      1      -5.8629      2.00000
      2      -2.8453      2.00000
      3       0.2664      2.00000
      4       1.4600      2.00000
      5       3.8181      0.00000
      6       5.8330      0.00000
      7       6.0361      0.00000
      8       7.6984      0.00000

 k-point    26 :      -0.2500    0.1667    0.0000
  band No.  band energies     occupation 
      1      -6.2524      2.00000
      2      -2.1338      2.00000
      3       0.4457      2.00000
      4       1.6991      2.00000
      5       3.8768      0.00000
      6       5.7343      0.00000
      7       5.8106      0.00000
      8       6.8793      0.00000

 k-point    27 :      -0.1667    0.1667    0.0000
  band No.  band energies     occupation 
      1      -6.6010      2.00000
      2      -1.3672      2.00000
      3       0.8324      2.00000
      4       1.9376      2.00000
      5       3.8126      0.00000
      6       5.3669      0.00000
      7       5.4531      0.00000
      8       6.4972      0.00000

 k-point    28 :       0.2500    0.2500    0.0000
  band No.  band energies     occupation 
      1      -6.5043      2.00000
      2      -1.4574      2.00000
      3       1.1284      2.00000
      4       1.1284      2.00000
      5       3.7085      0.00000
      6       4.5923      0.00000
      7       6.7803      0.00000
      8       6.7803      0.00000

 k-point    29 :       0.3333    0.2500    0.0000
  band No.  band energies     occupation 
      1      -6.2107      2.00000
      2      -2.0725      2.00000
      3       0.8159      2.00000
      4       0.9533      2.00000
      5       3.7613      0.00000
      6       4.6010      0.00000
      7       7.0045      0.00000
      8       7.1836      0.00000

 k-point    30 :       0.4167    0.2500    0.0000
  band No.  band energies     occupation 
      1      -5.8353      2.00000
      2      -2.7327      2.00000
      3       0.3953      2.00000
      4       0.8699      2.00000
      5       3.8853      0.00000
      6       4.9863      0.00000
      7       6.9155      0.00000
      8       7.3194      0.00000

 k-point    31 :       0.5000    0.2500    0.0000
  band No.  band energies     occupation 
      1      -5.4537      2.00000
      2      -3.2967      2.00000
      3       0.0276      2.00000
      4       0.8857      2.00000
      5       3.8943      0.00000
[...]
      8       8.1512      0.00000

 k-point    37 :       0.5000    0.3333    0.0000
  band No.  band energies     occupation 
      1      -5.1888      2.00000
      2      -3.5764      2.00000
      3       0.0463      2.00000
      4       0.6541      2.00000
      5       3.7182      0.00000
      6       4.8302      0.00000
      7       7.7822      0.00000
      8       8.1467      0.00000

 k-point    38 :      -0.4167    0.3333    0.0000
  band No.  band energies     occupation 
      1      -4.9295      2.00000
      2      -3.8688      2.00000
      3      -0.2936      2.00000
      4       0.7526      2.00000
      5       3.7971      0.00000
      6       5.8276      0.00000
      7       7.6547      0.00000
      8       7.8768      0.00000

 k-point    39 :      -0.3333    0.3333    0.0000
  band No.  band energies     occupation 
      1      -5.1200      2.00000
      2      -3.6522      2.00000
      3      -0.4170      2.00000
      4       0.9411      2.00000
      5       3.9226      0.00000
      6       6.8617      0.00000
      7       7.3716      0.00000
      8       7.4260      0.00000

 k-point    40 :       0.4167    0.4167    0.0000
  band No.  band energies     occupation 
      1      -5.2513      2.00000
      2      -3.5168      2.00000
      3       0.5296      2.00000
      4       0.5296      2.00000
      5       3.4009      0.00000
      6       3.8788      0.00000
      7       8.7738      0.00000
      8       8.7738      0.00000

 k-point    41 :       0.5000    0.4167    0.0000
  band No.  band energies     occupation 
      1      -4.8450      2.00000
      2      -3.9896      2.00000
      3       0.2938      2.00000
      4       0.5037      2.00000
      5       3.5620      0.00000
      6       3.9473      0.00000
      7       8.8321      0.00000
      8       8.9378      0.00000

 k-point    42 :      -0.4167    0.4167    0.0000
  band No.  band energies     occupation 
      1      -4.5930      2.00000
      2      -4.2383      2.00000
      3      -0.0723      2.00000
      4       0.5806      2.00000
      5       3.6561      0.00000
      6       4.7366      0.00000
      7       8.4967      0.00000
      8       8.5984      0.00000

 k-point    43 :       0.5000    0.5000    0.0000
  band No.  band energies     occupation 
      1      -4.4346      2.00000
      2      -4.4346      2.00000
      3       0.4518      2.00000
      4       0.4518      2.00000
      5       3.5427      0.00000
      6       3.5427      0.00000
      7       9.2699      0.00000
      8       9.2699      0.00000

 k-point    44 :       0.2500    0.1667    0.0833
  band No.  band energies     occupation 
      1      -6.8330      2.00000
      2      -0.6845      2.00000
      3       1.3367      2.00000
      4       1.8314      2.00000
      5       3.9350      0.00000
      6       4.4915      0.00000
      7       5.6901      0.00000
      8       6.0806      0.00000

 k-point    45 :       0.3333    0.1667    0.0833
  band No.  band energies     occupation 
      1      -6.5415      2.00000
      2      -1.5120      2.00000
      3       0.9281      2.00000
      4       1.6533      2.00000
      5       3.9617      0.00000
      6       4.8588      0.00000
      7       6.0486      0.00000
      8       6.5256      0.00000

 k-point    46 :       0.4167    0.1667    0.0833
  band No.  band energies     occupation 
      1      -6.1692      2.00000
      2      -2.3397      2.00000
      3       0.6617      2.00000
      4       1.4503      2.00000
      5       3.8399      0.00000
      6       5.2693      0.00000
      7       6.1969      0.00000
      8       7.0619      0.00000

 k-point    47 :       0.5000    0.1667    0.0833
  band No.  band energies     occupation 
      1      -5.7934      2.00000
      2      -3.0121      2.00000
      3       0.5136      2.00000
      4       1.3032      2.00000
      5       3.7379      0.00000
      6       5.4527      0.00000
      7       6.2103      0.00000
      8       7.8573      0.00000

 k-point    48 :      -0.4167    0.1667    0.0833
  band No.  band energies     occupation 
      1      -5.6099      2.00000
      2      -3.2979      2.00000
      3       0.4663      2.00000
      4       1.2502      2.00000
      5       3.7004      0.00000
      6       5.4886      0.00000
      7       6.2054      0.00000
      8       8.5069      0.00000

 k-point    49 :       0.3333    0.2500    0.0833
  band No.  band energies     occupation 
      1      -6.4331      2.00000
      2      -1.6572      2.00000
      3       0.8654      2.00000
      4       1.2606      2.00000
      5       4.1352      0.00000
      6       4.5520      0.00000
      7       6.5037      0.00000
      8       6.7084      0.00000

 k-point    50 :       0.4167    0.2500    0.0833
  band No.  band energies     occupation 
      1      -6.0826      2.00000
      2      -2.3518      2.00000
      3       0.4755      2.00000
      4       1.0890      2.00000
      5       4.2498      0.00000
      6       4.8955      0.00000
      7       6.4677      0.00000
      8       7.0669      0.00000

 k-point    51 :       0.5000    0.2500    0.0833
  band No.  band energies     occupation 
      1      -5.6903      2.00000
      2      -3.0020      2.00000
      3       0.1820      2.00000
      4       0.9681      2.00000
      5       4.1993      0.00000
      6       5.4397      0.00000
      7       6.5920      0.00000
      8       7.2188      0.00000

 k-point    52 :      -0.4167    0.2500    0.0833
  band No.  band energies     occupation 
      1      -5.4085      2.00000
      2      -3.4070      2.00000
      3      -0.0013      2.00000
      4       0.9575      2.00000
      5       4.1792      0.00000
      6       5.6452      0.00000
      7       6.8883      0.00000
      8       7.5879      0.00000

 k-point    53 :      -0.3333    0.2500    0.0833
  band No.  band energies     occupation 
      1      -5.4861      2.00000
      2      -3.2994      2.00000
      3      -0.0524      2.00000
      4       1.0603      2.00000
      5       4.2168      0.00000
      6       5.6630      0.00000
      7       6.8152      0.00000
      8       7.7262      0.00000

 k-point    54 :      -0.2500    0.2500    0.0833
  band No.  band energies     occupation 
      1      -5.8379      2.00000
      2      -2.7769      2.00000
      3       0.0601      2.00000
      4       1.2525      2.00000
      5       4.2856      0.00000
      6       5.5247      0.00000
      7       6.5811      0.00000
      8       7.0662      0.00000

 k-point    55 :      -0.1667    0.2500    0.0833
  band No.  band energies     occupation 
      1      -6.2235      2.00000
      2      -2.1259      2.00000
      3       0.3781      2.00000
      4       1.4830      2.00000
      5       4.2777      0.00000
      6       5.1063      0.00000
      7       6.5074      0.00000
      8       6.5272      0.00000

 k-point    56 :       0.4167    0.3333    0.0833
  band No.  band energies     occupation 
      1      -5.8872      2.00000
      2      -2.6208      2.00000
      3       0.5168      2.00000
      4       0.7844      2.00000
      5       3.8903      0.00000
      6       4.5461      0.00000
      7       7.0535      0.00000
      8       7.7728      0.00000

 k-point    57 :       0.5000    0.3333    0.0833
  band No.  band energies     occupation 
      1      -5.4955      2.00000
      2      -3.1876      2.00000
      3       0.1512      2.00000
      4       0.6566      2.00000
      5       4.1096      0.00000
      6       4.9344      0.00000
      7       6.8942      0.00000
      8       8.0359      0.00000

 k-point    58 :      -0.4167    0.3333    0.0833
  band No.  band energies     occupation 
      1      -5.1429      2.00000
      2      -3.6315      2.00000
      3      -0.1708      2.00000
      4       0.6581      2.00000
      5       4.1695      0.00000
      6       5.8078      0.00000
      7       6.7878      0.00000
      8       7.9055      0.00000

 k-point    59 :      -0.3333    0.3333    0.0833
  band No.  band energies     occupation 
      1      -5.1191      2.00000
      2      -3.6569      2.00000
      3      -0.3374      2.00000
      4       0.7803      2.00000
      5       4.2597      0.00000
      6       6.3496      0.00000
      7       7.1870      0.00000
      8       7.3516      0.00000

 k-point    60 :      -0.2500    0.3333    0.0833
  band No.  band energies     occupation 
      1      -5.4489      2.00000
      2      -3.2607      2.00000
      3      -0.2767      2.00000
      4       0.9954      2.00000
      5       4.3600      0.00000
      6       6.1214      0.00000
      7       6.7366      0.00000
      8       7.4790      0.00000

 k-point    61 :       0.5000    0.4167    0.0833
  band No.  band energies     occupation 
      1      -5.2104      2.00000
      2      -3.5511      2.00000
      3       0.3249      2.00000
      4       0.4591      2.00000
      5       3.8109      0.00000
      6       4.2010      0.00000
      7       7.9434      0.00000
      8       8.6988      0.00000

 k-point    62 :      -0.4167    0.4167    0.0833
  band No.  band energies     occupation 
      1      -4.8131      2.00000
      2      -3.9931      2.00000
      3      -0.0180      2.00000
      4       0.4292      2.00000
      5       4.0139      0.00000
      6       4.7889      0.00000
      7       7.7665      0.00000
      8       8.4888      0.00000

 k-point    63 :      -0.3333    0.4167    0.0833
  band No.  band energies     occupation 
      1      -4.7629      2.00000
      2      -4.0333      2.00000
      3      -0.3019      2.00000
      4       0.5549      2.00000
      5       4.1251      0.00000
      6       5.8412      0.00000
      7       7.5458      0.00000
      8       7.6153      0.00000

 k-point    64 :      -0.4167    0.5000    0.0833
  band No.  band energies     occupation 
      1      -4.4234      2.00000
      2      -4.4234      2.00000
      3       0.3042      2.00000
      4       0.3042      2.00000
      5       3.9189      0.00000
      6       3.9189      0.00000
      7       8.7772      0.00000
      8       8.7772      0.00000

 k-point    65 :       0.5000    0.3333    0.1667
  band No.  band energies     occupation 
      1      -5.7149      2.00000
      2      -2.8939      2.00000
      3       0.0734      2.00000
      4       0.8761      2.00000
      5       4.8522      0.00000
      6       4.8829      0.00000
      7       6.2969      0.00000
      8       7.6667      0.00000

 k-point    66 :      -0.4167    0.3333    0.1667
  band No.  band energies     occupation 
      1      -5.3257      2.00000
      2      -3.4081      2.00000
      3      -0.1612      2.00000
      4       0.6817      2.00000
      5       4.8200      0.00000
      6       5.4928      0.00000
      7       6.4405      0.00000
      8       7.8478      0.00000

 k-point    67 :      -0.3333    0.3333    0.1667
  band No.  band energies     occupation 
      1      -5.1183      2.00000
      2      -3.6615      2.00000
      3      -0.2360      2.00000
      4       0.6067      2.00000
      5       4.8053      0.00000
      6       5.6246      0.00000
      7       7.2250      0.00000
      8       7.2644      0.00000

 k-point    68 :      -0.4167    0.4167    0.1667
  band No.  band energies     occupation 
      1      -5.0973      2.00000
      2      -3.6569      2.00000
      3      -0.0406      2.00000
      4       0.3713      2.00000
      5       4.7893      0.00000
      6       4.9764      0.00000
      7       6.6892      0.00000
      8       8.2934      0.00000

 k-point    69 :      -0.3333    0.4167    0.1667
  band No.  band energies     occupation 
      1      -4.7790      2.00000
      2      -3.9989      2.00000
      3      -0.2099      2.00000
      4       0.2759      2.00000
      5       4.9470      0.00000
      6       5.8311      0.00000
      7       6.5711      0.00000
      8       7.4020      0.00000

 k-point    70 :      -0.2500    0.4167    0.1667
  band No.  band energies     occupation 
      1      -4.9374      2.00000
      2      -3.8275      2.00000
      3      -0.2873      2.00000
      4       0.4121      2.00000
      5       5.0336      0.00000
      6       6.0088      0.00000
      7       6.5033      0.00000
      8       7.2684      0.00000

 k-point    71 :      -0.3333    0.5000    0.1667
  band No.  band energies     occupation 
      1      -4.4003      2.00000
      2      -4.4003      2.00000
      3       0.0571      2.00000
      4       0.0571      2.00000
      5       4.8410      0.00000
      6       4.8410      0.00000
      7       7.5719      0.00000
      8       7.5719      0.00000

 k-point    72 :      -0.2500    0.5000    0.2500
  band No.  band energies     occupation 
      1      -4.3885      2.00000
      2      -4.3885      2.00000
      3      -0.0503      2.00000
      4      -0.0503      2.00000
      5       5.7700      0.00000
      6       5.7700      0.00000
      7       6.5151      0.00000
      8       6.5151      0.00000


--------------------------------------------------------------------------------------------------------


 soft charge-density along one line, spin component           1
         0         1         2         3         4         5         6         7         8         9
 total charge-density along one line
 
 pseudopotential strength for first ion, spin component:           1
 18.830   0.003   0.000   0.000   0.000  -0.000  -0.000  -0.000
  0.003   0.006  -0.000  -0.000  -0.000   0.000   0.000   0.000
  0.000  -0.000   4.224  -0.000  -0.000  -0.002   0.000   0.000
  0.000  -0.000  -0.000   4.224  -0.000   0.000  -0.002   0.000
  0.000  -0.000  -0.000  -0.000   4.224   0.000   0.000  -0.002
 -0.000   0.000  -0.002   0.000   0.000   0.005  -0.000  -0.000
 -0.000   0.000   0.000  -0.002   0.000  -0.000   0.005  -0.000
 -0.000   0.000   0.000   0.000  -0.002  -0.000  -0.000   0.005
 total augmentation occupancy for first ion, spin component:           1
  1.648  -0.263   0.000   0.000   0.000   0.000   0.000   0.000
 -0.263   0.285   0.000   0.000   0.000   0.000   0.000   0.000
  0.000   0.000   0.794   0.000   0.000  -0.297   0.000   0.000
  0.000   0.000  -0.000   0.794   0.000   0.000  -0.297   0.000
  0.000   0.000  -0.000   0.000   0.794   0.000   0.000  -0.297
  0.000   0.000  -0.297   0.000   0.000   0.137   0.000   0.000
 -0.000   0.000   0.000  -0.297   0.000   0.000   0.137   0.000
  0.000  -0.000   0.000   0.000  -0.297   0.000  -0.000   0.137


------------------------ aborting loop because EDIFF is reached ----------------------------------------


    CHARGE:  cpu time    0.03: real time    0.03
    FORLOC:  cpu time    0.00: real time    0.00
    FORNL :  cpu time    0.05: real time    0.05
    STRESS:  cpu time    0.39: real time    0.40
    FORCOR:  cpu time    0.02: real time    0.02
    FORHAR:  cpu time    0.01: real time    0.01
    MIXING:  cpu time    0.00: real time    0.00
    OFIELD:  cpu time    0.00: real time    0.00

  FORCE on cell =-STRESS in cart. coord.  units (eV):
  Direction    XX          YY          ZZ          XY          YZ          ZX
  --------------------------------------------------------------------------------------
  Alpha Z     2.22169     2.22169     2.22169
  Ewald     -66.34720   -66.34720   -66.34720    -0.00000    -0.00000     0.00000
  Hartree     6.79001     6.79001     6.79001     0.00000     0.00000     0.00000
  E(xc)     -23.41978   -23.41978   -23.41978    -0.00000    -0.00000    -0.00000
  Local     -36.11673   -36.11673   -36.11673     0.00001     0.00001     0.00001
  n-local    75.40660    76.82810    71.15127     1.65396    -0.83873     0.24962
  augment   -12.12412   -12.12412   -12.12412    -0.00001    -0.00001    -0.00001
  Kinetic    51.40457    51.46687    44.89127     3.59676    -1.25867     1.03064
  Fock        0.00000     0.00000     0.00000     0.00000     0.00000     0.00000
  -------------------------------------------------------------------------------------
  Total      -5.27990    -5.27990    -5.27990    -0.00000    -0.00000    -0.00000
  in kB    -139.57477  -139.57477  -139.57477    -0.00000    -0.00000    -0.00000
  external pressure =     -139.57 kB  Pullay stress =        0.00 kB


 VOLUME and BASIS-vectors are now :
 -----------------------------------------------------------------------------
  energy-cutoff  :      600.00
  volume of cell :       60.61
      direct lattice vectors                 reciprocal lattice vectors
     0.000000000  3.117691454  3.117691454    -0.160375075  0.160375075  0.160375075
     3.117691454  0.000000000  3.117691454     0.160375075 -0.160375075  0.160375075
     3.117691454  3.117691454  0.000000000     0.160375075  0.160375075 -0.160375075

  length of vectors
     4.409081537  4.409081537  4.409081537     0.277777778  0.277777778  0.277777778


 FORCES acting on ions
    electron-ion (+dipol)            ewald-force                    non-local-force                 convergence-correction
 -----------------------------------------------------------------------------------------------
   0.490E-07 0.490E-07 0.564E-07   0.577E-15 -.121E-15 0.976E-15   0.694E-16 0.416E-16 0.729E-16   -.824E-13 -.843E-13 -.816E-13
   -.490E-07 -.490E-07 -.564E-07   -.525E-15 0.104E-15 -.114E-14   -.867E-16 -.555E-16 -.555E-16   0.777E-13 0.811E-13 0.864E-13
 -----------------------------------------------------------------------------------------------
   0.122E-12 0.500E-13 -.429E-14   0.528E-16 -.169E-16 -.162E-15   -.173E-16 -.139E-16 0.173E-16   -.476E-14 -.321E-14 0.477E-14
 
 
 POSITION                                       TOTAL-FORCE (eV/Angst)
 -----------------------------------------------------------------------------------
      0.00000      0.00000      0.00000        -0.000000     -0.000000     -0.000000
      1.55885      1.55885      1.55885         0.000000      0.000000      0.000000
 -----------------------------------------------------------------------------------
    total drift:                                0.000000      0.000000      0.000000


--------------------------------------------------------------------------------------------------------



  FREE ENERGIE OF THE ION-ELECTRON SYSTEM (eV)
  ---------------------------------------------------
  free  energy   TOTEN  =        -9.58808521 eV

  energy  without entropy=       -9.58799697  energy(sigma->0) =       -9.58804109
 


--------------------------------------------------------------------------------------------------------


    POTLOK:  cpu time    0.02: real time    0.03


--------------------------------------------------------------------------------------------------------


 writing wavefunctions
     LOOP+:  cpu time    9.96: real time   10.33
    4ORBIT:  cpu time    0.00: real time    0.00

 total amount of memory used by VASP on root node    49208. kBytes
========================================================================

   base      :      30000. kBytes
   nonl-proj :       9688. kBytes
   fftplans  :       1619. kBytes
   grid      :       3048. kBytes
   one-center:          6. kBytes
   wavefun   :       4847. kBytes
 
  
  
 General timing and accounting informations for this job:
 ========================================================
  
                  Total CPU time used (sec):       10.436
                            User time (sec):       10.120
                          System time (sec):        0.316
                         Elapsed time (sec):       10.945
  
                   Maximum memory used (kb):       57672.
                   Average memory used (kb):           0.
  
                          Minor page faults:         9469
                          Major page faults:            5
                 Voluntary context switches:          585
