 vasp.5.3.5 31Mar14 (build Jun 01 2017 17:55:53) complex                        
  
 executed on             LinuxIFC date 2020.11.10  15:23:03
 running on    4 total cores
 distrk:  each k-point on    4 cores,    1 groups
 distr:  one band on NCORES_PER_BAND=   1 cores,    4 groups


--------------------------------------------------------------------------------------------------------


 INCAR:
 POTCAR:   PAW_PBE Si 05Jan2001                   
 POTCAR:   PAW_PBE Si 05Jan2001                   
   VRHFIN =Si: s2p2                                                             
   LEXCH  = PE                                                                  
   EATOM  =   103.0669 eV,    7.5752 Ry                                         
                                                                                
   TITEL  = PAW_PBE Si 05Jan2001                                                
   LULTRA =        F    use ultrasoft PP ?                                      
   IUNSCR =        1    unscreen: 0-lin 1-nonlin 2-no                           
   RPACOR =    1.500    partial core radius                                     
   POMASS =   28.085; ZVAL   =    4.000    mass and valenz                      
   RCORE  =    1.900    outmost cutoff radius                                   
   RWIGS  =    2.480; RWIGS  =    1.312    wigner-seitz radius (au A)           
   ENMAX  =  245.345; ENMIN  =  184.009 eV                                      
   ICORE  =        2    local potential                                         
   LCOR   =        T    correct aug charges                                     
   LPAW   =        T    paw PP                                                  
   EAUG   =  322.069                                                            
   DEXC   =    -.007                                                            
   RMAX   =    2.944    core radius for proj-oper                               
   RAUG   =    1.300    factor for augmentation sphere                          
   RDEP   =    1.993    radius for radial grids                                 
   QCUT   =   -4.246; QGAM   =    8.493    optimization parameters              
                                                                                
   Description                                                                  
     l     E      TYP  RCUT    TYP  RCUT                                        
     0   .000     23  1.900                                                     
     0   .000     23  1.900                                                     
     1   .000     23  1.900                                                     
     1   .000     23  1.900                                                     
     2   .000      7  1.900                                                     
  local pseudopotential read in
  partial core-charges read in
  atomic valenz-charges read in
  non local Contribution for L=           0  read in
    real space projection operators read in
  non local Contribution for L=           0  read in
    real space projection operators read in
  non local Contribution for L=           1  read in
    real space projection operators read in
  non local Contribution for L=           1  read in
    real space projection operators read in
    PAW grid and wavefunctions read in
 
   number of l-projection  operators is LMAX  =           4
   number of lm-projection operators is LMMAX =           8
 
 PAW_PBE Si 05Jan2001                   :
 energy of atom  1       EATOM= -103.0669
 kinetic energy error for atom=    0.0003 (will be added to EATOM!!)
 
 
 POSCAR: Si
  positions in direct lattice
  velocities in cartesian coordinates
  No initial velocities read in
 exchange correlation table for  LEXCH =        8
   RHO(1)=    0.500       N(1)  =     2000
   RHO(2)=  100.500       N(2)  =     4000
 


--------------------------------------------------------------------------------------------------------


 ion  position               nearest neighbor table
   1  0.000  0.000  0.000-
   2  0.250  0.250  0.250-
 
  LATTYP: Found a face centered cubic cell.
 ALAT       =     8.0829037687
  
  Lattice vectors:
  
 A1 = (   0.0000000000,   4.0414518843,   4.0414518843)
 A2 = (   4.0414518843,   0.0000000000,   4.0414518843)
 A3 = (   4.0414518843,   4.0414518843,   0.0000000000)


Analysis of symmetry for initial positions (statically):
=====================================================================
 Subroutine PRICEL returns:
 Original cell was already a primitive cell.
 

 Routine SETGRP: Setting up the symmetry group for a 
 face centered cubic supercell.


 Subroutine GETGRP returns: Found 48 space group operations
 (whereof 24 operations were pure point group operations)
 out of a pool of 48 trial point group operations.


The static configuration has the point symmetry T_d .
 The point group associated with its full space group is O_h .


Analysis of symmetry for dynamics (positions and initial velocities):
=====================================================================
 Subroutine PRICEL returns:
 Original cell was already a primitive cell.
 

 Routine SETGRP: Setting up the symmetry group for a 
 face centered cubic supercell.


 Subroutine GETGRP returns: Found 48 space group operations
 (whereof 24 operations were pure point group operations)
 out of a pool of 48 trial point group operations.


The dynamic configuration has the point symmetry T_d .
 The point group associated with its full space group is O_h .


Analysis of constrained symmetry for selective dynamics:
=====================================================================
 Subroutine PRICEL returns:
 Original cell was already a primitive cell.
 

 Routine SETGRP: Setting up the symmetry group for a 
 face centered cubic supercell.


 Subroutine GETGRP returns: Found 48 space group operations
 (whereof 24 operations were pure point group operations)
 out of a pool of 48 trial point group operations.


The constrained configuration has the point symmetry T_d .
 The point group associated with its full space group is O_h .
 
 
 KPOINTS: Gamma centered Monkhorst-Pack           

Automatic generation of k-mesh.
Space group operators:
 irot       det(A)        alpha          n_x          n_y          n_z        tau_x        tau_y        tau_z
    1     1.000000     0.000000     1.000000     0.000000     0.000000     0.000000     0.000000     0.000000
    2     1.000000   120.000000    -0.577350    -0.577350    -0.577350     0.000000     0.000000     0.000000
    3     1.000000   120.000000     0.577350     0.577350     0.577350     0.000000     0.000000     0.000000
    4    -1.000000    90.000000     0.000000     0.000000    -1.000000     0.000000     0.000000     0.000000
    5    -1.000000   180.000000     0.000000     0.707107     0.707107     0.000000     0.000000     0.000000
    6    -1.000000    90.000000     0.000000     1.000000     0.000000     0.000000     0.000000     0.000000
    7     1.000000   180.000000     0.000000     0.000000     1.000000     0.000000     0.000000     0.000000
    8     1.000000   120.000000    -0.577350     0.577350     0.577350     0.000000     0.000000     0.000000
    9     1.000000   120.000000    -0.577350     0.577350    -0.577350     0.000000     0.000000     0.000000
   10    -1.000000    90.000000     0.000000     0.000000     1.000000     0.000000     0.000000     0.000000
   11    -1.000000    90.000000    -1.000000     0.000000     0.000000     0.000000     0.000000     0.000000
   12    -1.000000   180.000000     0.707107     0.000000     0.707107     0.000000     0.000000     0.000000
   13     1.000000   120.000000     0.577350    -0.577350     0.577350     0.000000     0.000000     0.000000
   14     1.000000   120.000000    -0.577350    -0.577350     0.577350     0.000000     0.000000     0.000000
   15     1.000000   180.000000     1.000000     0.000000     0.000000     0.000000     0.000000     0.000000
   16    -1.000000    90.000000     0.000000    -1.000000     0.000000     0.000000     0.000000     0.000000
   17    -1.000000   180.000000     0.707107     0.707107     0.000000     0.000000     0.000000     0.000000
   18    -1.000000    90.000000     1.000000     0.000000     0.000000     0.000000     0.000000     0.000000
   19     1.000000   120.000000     0.577350    -0.577350    -0.577350     0.000000     0.000000     0.000000
   20     1.000000   180.000000     0.000000     1.000000     0.000000     0.000000     0.000000     0.000000
   21     1.000000   120.000000     0.577350     0.577350    -0.577350     0.000000     0.000000     0.000000
   22    -1.000000   180.000000     0.000000    -0.707107     0.707107     0.000000     0.000000     0.000000
   23    -1.000000   180.000000     0.707107    -0.707107     0.000000     0.000000     0.000000     0.000000
   24    -1.000000   180.000000     0.707107     0.000000    -0.707107     0.000000     0.000000     0.000000
   25    -1.000000     0.000000     1.000000     0.000000     0.000000     0.250000     0.250000     0.250000
   26    -1.000000   120.000000    -0.577350    -0.577350    -0.577350     0.250000     0.250000     0.250000
   27    -1.000000   120.000000     0.577350     0.577350     0.577350     0.250000     0.250000     0.250000
   28     1.000000    90.000000     0.000000     0.000000    -1.000000     0.250000     0.250000     0.250000
   29     1.000000   180.000000     0.000000     0.707107     0.707107     0.250000     0.250000     0.250000
   30     1.000000    90.000000     0.000000     1.000000     0.000000     0.250000     0.250000     0.250000
   31    -1.000000   180.000000     0.000000     0.000000     1.000000     0.250000     0.250000     0.250000
   32    -1.000000   120.000000    -0.577350     0.577350     0.577350     0.250000     0.250000     0.250000
   33    -1.000000   120.000000    -0.577350     0.577350    -0.577350     0.250000     0.250000     0.250000
   34     1.000000    90.000000     0.000000     0.000000     1.000000     0.250000     0.250000     0.250000
   35     1.000000    90.000000    -1.000000     0.000000     0.000000     0.250000     0.250000     0.250000
   36     1.000000   180.000000     0.707107     0.000000     0.707107     0.250000     0.250000     0.250000
   37    -1.000000   120.000000     0.577350    -0.577350     0.577350     0.250000     0.250000     0.250000
   38    -1.000000   120.000000    -0.577350    -0.577350     0.577350     0.250000     0.250000     0.250000
   39    -1.000000   180.000000     1.000000     0.000000     0.000000     0.250000     0.250000     0.250000
   40     1.000000    90.000000     0.000000    -1.000000     0.000000     0.250000     0.250000     0.250000
   41     1.000000   180.000000     0.707107     0.707107     0.000000     0.250000     0.250000     0.250000
   42     1.000000    90.000000     1.000000     0.000000     0.000000     0.250000     0.250000     0.250000
   43    -1.000000   120.000000     0.577350    -0.577350    -0.577350     0.250000     0.250000     0.250000
   44    -1.000000   180.000000     0.000000     1.000000     0.000000     0.250000     0.250000     0.250000
   45    -1.000000   120.000000     0.577350     0.577350    -0.577350     0.250000     0.250000     0.250000
   46     1.000000   180.000000     0.000000    -0.707107     0.707107     0.250000     0.250000     0.250000
   47     1.000000   180.000000     0.707107    -0.707107     0.000000     0.250000     0.250000     0.250000
   48     1.000000   180.000000     0.707107     0.000000    -0.707107     0.250000     0.250000     0.250000
 
 Subroutine IBZKPT returns following result:
 ===========================================
 
 Found     72 irreducible k-points:
 
 Following reciprocal coordinates:
            Coordinates               Weight
  0.000000  0.000000  0.000000      1.000000
  0.083333  0.000000  0.000000      8.000000
  0.166667  0.000000  0.000000      8.000000
  0.250000  0.000000  0.000000      8.000000
  0.333333  0.000000  0.000000      8.000000
  0.416667  0.000000  0.000000      8.000000
  0.500000  0.000000  0.000000      4.000000
  0.083333  0.083333  0.000000      6.000000
  0.166667  0.083333  0.000000     24.000000
  0.250000  0.083333  0.000000     24.000000
  0.333333  0.083333  0.000000     24.000000
  0.416667  0.083333  0.000000     24.000000
  0.500000  0.083333  0.000000     24.000000
 -0.416667  0.083333  0.000000     24.000000
 -0.333333  0.083333  0.000000     24.000000
 -0.250000  0.083333  0.000000     24.000000
 -0.166667  0.083333  0.000000     24.000000
 -0.083333  0.083333  0.000000     12.000000
  0.166667  0.166667  0.000000      6.000000
  0.250000  0.166667  0.000000     24.000000
  0.333333  0.166667  0.000000     24.000000
  0.416667  0.166667  0.000000     24.000000
  0.500000  0.166667  0.000000     24.000000
 -0.416667  0.166667  0.000000     24.000000
 -0.333333  0.166667  0.000000     24.000000
 -0.250000  0.166667  0.000000     24.000000
 -0.166667  0.166667  0.000000     12.000000
  0.250000  0.250000  0.000000      6.000000
  0.333333  0.250000  0.000000     24.000000
  0.416667  0.250000  0.000000     24.000000
  0.500000  0.250000  0.000000     24.000000
 -0.416667  0.250000  0.000000     24.000000
 -0.333333  0.250000  0.000000     24.000000
 -0.250000  0.250000  0.000000     12.000000
  0.333333  0.333333  0.000000      6.000000
  0.416667  0.333333  0.000000     24.000000
  0.500000  0.333333  0.000000     24.000000
 -0.416667  0.333333  0.000000     24.000000
 -0.333333  0.333333  0.000000     12.000000
  0.416667  0.416667  0.000000      6.000000
  0.500000  0.416667  0.000000     24.000000
 -0.416667  0.416667  0.000000     12.000000
  0.500000  0.500000  0.000000      3.000000
  0.250000  0.166667  0.083333     24.000000
  0.333333  0.166667  0.083333     48.000000
  0.416667  0.166667  0.083333     48.000000
  0.500000  0.166667  0.083333     48.000000
 -0.416667  0.166667  0.083333     24.000000
  0.333333  0.250000  0.083333     24.000000
  0.416667  0.250000  0.083333     48.000000
  0.500000  0.250000  0.083333     48.000000
 -0.416667  0.250000  0.083333     48.000000
 -0.333333  0.250000  0.083333     48.000000
 -0.250000  0.250000  0.083333     48.000000
 -0.166667  0.250000  0.083333     24.000000
  0.416667  0.333333  0.083333     24.000000
  0.500000  0.333333  0.083333     48.000000
 -0.416667  0.333333  0.083333     48.000000
 -0.333333  0.333333  0.083333     48.000000
 -0.250000  0.333333  0.083333     24.000000
  0.500000  0.416667  0.083333     24.000000
 -0.416667  0.416667  0.083333     48.000000
 -0.333333  0.416667  0.083333     24.000000
 -0.416667  0.500000  0.083333     12.000000
  0.500000  0.333333  0.166667     24.000000
 -0.416667  0.333333  0.166667     48.000000
 -0.333333  0.333333  0.166667     24.000000
 -0.416667  0.416667  0.166667     24.000000
 -0.333333  0.416667  0.166667     48.000000
 -0.250000  0.416667  0.166667     24.000000
 -0.333333  0.500000  0.166667     12.000000
 -0.250000  0.500000  0.250000      6.000000
 
 Following cartesian coordinates:
            Coordinates               Weight
  0.000000  0.000000  0.000000      1.000000
 -0.083333  0.083333  0.083333      8.000000
 -0.166667  0.166667  0.166667      8.000000
 -0.250000  0.250000  0.250000      8.000000
 -0.333333  0.333333  0.333333      8.000000
 -0.416667  0.416667  0.416667      8.000000
 -0.500000  0.500000  0.500000      4.000000
  0.000000  0.000000  0.166667      6.000000
 -0.083333  0.083333  0.250000     24.000000
 -0.166667  0.166667  0.333333     24.000000
 -0.250000  0.250000  0.416667     24.000000
 -0.333333  0.333333  0.500000     24.000000
 -0.416667  0.416667  0.583333     24.000000
  0.500000 -0.500000 -0.333333     24.000000
  0.416667 -0.416667 -0.250000     24.000000
  0.333333 -0.333333 -0.166667     24.000000
  0.250000 -0.250000 -0.083333     24.000000
  0.166667 -0.166667  0.000000     12.000000
  0.000000  0.000000  0.333333      6.000000
 -0.083333  0.083333  0.416667     24.000000
 -0.166667  0.166667  0.500000     24.000000
 -0.250000  0.250000  0.583333     24.000000
 -0.333333  0.333333  0.666667     24.000000
  0.583333 -0.583333 -0.250000     24.000000
  0.500000 -0.500000 -0.166667     24.000000
  0.416667 -0.416667 -0.083333     24.000000
  0.333333 -0.333333  0.000000     12.000000
  0.000000  0.000000  0.500000      6.000000
 -0.083333  0.083333  0.583333     24.000000
 -0.166667  0.166667  0.666667     24.000000
 -0.250000  0.250000  0.750000     24.000000
  0.666667 -0.666667 -0.166667     24.000000
  0.583333 -0.583333 -0.083333     24.000000
  0.500000 -0.500000  0.000000     12.000000
  0.000000  0.000000  0.666667      6.000000
 -0.083333  0.083333  0.750000     24.000000
 -0.166667  0.166667  0.833333     24.000000
  0.750000 -0.750000 -0.083333     24.000000
  0.666667 -0.666667  0.000000     12.000000
  0.000000  0.000000  0.833333      6.000000
 -0.083333  0.083333  0.916667     24.000000
  0.833333 -0.833333  0.000000     12.000000
  0.000000  0.000000  1.000000      3.000000
  0.000000  0.166667  0.333333     24.000000
 -0.083333  0.250000  0.416667     48.000000
 -0.166667  0.333333  0.500000     48.000000
 -0.250000  0.416667  0.583333     48.000000
  0.666667 -0.500000 -0.333333     24.000000
  0.000000  0.166667  0.500000     24.000000
 -0.083333  0.250000  0.583333     48.000000
 -0.166667  0.333333  0.666667     48.000000
  0.750000 -0.583333 -0.250000     48.000000
  0.666667 -0.500000 -0.166667     48.000000
  0.583333 -0.416667 -0.083333     48.000000
  0.500000 -0.333333  0.000000     24.000000
 -0.000000  0.166667  0.666667     24.000000
 -0.083333  0.250000  0.750000     48.000000
  0.833333 -0.666667 -0.166667     48.000000
  0.750000 -0.583333 -0.083333     48.000000
  0.666667 -0.500000  0.000000     24.000000
  0.000000  0.166667  0.833333     24.000000
  0.916667 -0.750000 -0.083333     48.000000
  0.833333 -0.666667  0.000000     24.000000
  1.000000 -0.833333  0.000000     12.000000
  0.000000  0.333333  0.666667     24.000000
  0.916667 -0.583333 -0.250000     48.000000
  0.833333 -0.500000 -0.166667     24.000000
  1.000000 -0.666667 -0.166667     24.000000
  0.916667 -0.583333 -0.083333     48.000000
  0.833333 -0.500000  0.000000     24.000000
  1.000000 -0.666667  0.000000     12.000000
  1.000000 -0.500000  0.000000      6.000000
 


--------------------------------------------------------------------------------------------------------




 Dimension of arrays:
   k-points           NKPTS =     72   k-points in BZ     NKDIM =     72   number of bands    NBANDS=      8
   number of dos      NEDOS =    301   number of ions     NIONS =      2
   non local maximal  LDIM  =      4   non local SUM 2l+1 LMDIM =      8
   total plane-waves  NPLWV =  46656
   max r-space proj   IRMAX =      1   max aug-charges    IRDMAX=  12014
   dimension x,y,z NGX =    36 NGY =   36 NGZ =   36
   dimension x,y,z NGXF=    72 NGYF=   72 NGZF=   72
   support grid    NGXF=    72 NGYF=   72 NGZF=   72
   ions per type =               2
 NGX,Y,Z   is equivalent  to a cutoff of  10.47, 10.47, 10.47 a.u.
 NGXF,Y,Z  is equivalent  to a cutoff of  20.94, 20.94, 20.94 a.u.


 I would recommend the setting:
   dimension x,y,z NGX =    34 NGY =   34 NGZ =   34
 SYSTEM =  Si
 POSCAR =  Si

 Startparameter for this run:
   NWRITE =      2    write-flag & timer
   PREC   = normal    normal or accurate (medium, high low for compatibility)
   ISTART =      0    job   : 0-new  1-cont  2-samecut
   ICHARG =      2    charge: 1-file 2-atom 10-const
   ISPIN  =      1    spin polarized calculation?
   LNONCOLLINEAR =      F non collinear calculations
   LSORBIT =      F    spin-orbit coupling
   INIWAV =      1    electr: 0-lowe 1-rand  2-diag
   LASPH  =      F    aspherical Exc in radial PAW
   METAGGA=      F    non-selfconsistent MetaGGA calc.

 Electronic Relaxation 1
   ENCUT  =  600.0 eV  44.10 Ry    6.64 a.u.  11.42 11.42 11.42*2*pi/ulx,y,z
   ENINI  =  600.0     initial cutoff
   ENAUG  = 1200.0 eV  augmentation charge cutoff
   NELM   =    500;   NELMIN=  2; NELMDL= -5     # of ELM steps 
   EDIFF  = 0.1E-09   stopping-criterion for ELM
   LREAL  =      F    real-space projection
   NLSPLINE    = F    spline interpolate recip. space projectors
   LCOMPAT=      F    compatible to vasp.4.4
   GGA_COMPAT  = T    GGA compatible to vasp.4.4-vasp.4.6
   LMAXPAW     = -100 max onsite density
   LMAXMIX     =    2 max onsite mixed and CHGCAR
   VOSKOWN=      0    Vosko Wilk Nusair interpolation
   ROPT   =    0.00000
 Ionic relaxation
   EDIFFG = 0.1E-08   stopping-criterion for IOM
   NSW    =      0    number of steps for IOM
   NBLOCK =      1;   KBLOCK =      1    inner block; outer block 
   IBRION =     -1    ionic relax: 0-MD 1-quasi-New 2-CG
   NFREE  =      0    steps in history (QN), initial steepest desc. (CG)
   ISIF   =      2    stress and relaxation
   IWAVPR =     10    prediction:  0-non 1-charg 2-wave 3-comb
   ISYM   =      2    0-nonsym 1-usesym 2-fastsym
   LCORR  =      T    Harris-Foulkes like correction to forces

   POTIM  = 0.5000    time-step for ionic-motion
   TEIN   =    0.0    initial temperature
   TEBEG  =    0.0;   TEEND  =   0.0 temperature during run
   SMASS  =  -3.00    Nose mass-parameter (am)
   estimated Nose-frequenzy (Omega)   =  0.10E-29 period in steps =****** mass=  -0.747E-27a.u.
   SCALEE = 1.0000    scale energy and forces
   NPACO  =    256;   APACO  = 16.0  distance and # of slots for P.C.
   PSTRESS=    0.0 pullay stress

  Mass of Ions in am
   POMASS =  28.09
  Ionic Valenz
   ZVAL   =   4.00
  Atomic Wigner-Seitz radii
   RWIGS  =  -1.00
  virtual crystal weights 
   VCA    =   1.00
   NELECT =       8.0000    total number of electrons
   NUPDOWN=      -1.0000    fix difference up-down

 DOS related values:
   EMIN   =  10.00;   EMAX   =-10.00  energy-range for DOS
   EFERMI =   0.00
   ISMEAR =    -1;   SIGMA  =   0.03  broadening in eV -4-tet -1-fermi 0-gaus

 Electronic relaxation 2 (details)
   IALGO  =     38    algorithm
   LDIAG  =      T    sub-space diagonalisation (order eigenvalues)
   LSUBROT=      F    optimize rotation matrix (better conditioning)
   TURBO    =      0    0=normal 1=particle mesh
   IRESTART =      0    0=no restart 2=restart with 2 vectors
   NREBOOT  =      0    no. of reboots
   NMIN     =      0    reboot dimension
   EREF     =   0.00    reference energy to select bands
   IMIX   =      4    mixing-type and parameters
     AMIX     =   0.40;   BMIX     =  1.00
     AMIX_MAG =   1.60;   BMIX_MAG =  1.00
     AMIN     =   0.10
     WC   =   100.;   INIMIX=   1;  MIXPRE=   1;  MAXMIX= -45

 Intra band minimization:
   WEIMIN = 0.0000     energy-eigenvalue tresh-hold
   EBREAK =  0.31E-11  absolut break condition
   DEPER  =   0.30     relativ break condition  

   TIME   =   0.40     timestep for ELM

  volume/ion in A,a.u.               =      66.01       445.46
  Fermi-wavevector in a.u.,A,eV,Ry     =   0.643019  1.215130  5.625655  0.413474
  Thomas-Fermi vector in A             =   1.709881
 
 Write flags
   LWAVE  =      T    write WAVECAR
   LCHARG =      T    write CHGCAR
   LVTOT  =      F    write LOCPOT, total local potential
   LVHAR  =      F    write LOCPOT, Hartree potential only
   LELF   =      F    write electronic localiz. function (ELF)
   LORBIT =      0    0 simple, 1 ext, 2 COOP (PROOUT)


 Dipole corrections
   LMONO  =      F    monopole corrections only (constant potential shift)
   LDIPOL =      F    correct potential (dipole corrections)
   IDIPOL =      0    1-x, 2-y, 3-z, 4-all directions 
   EPSILON=  1.0000000 bulk dielectric constant

 Exchange correlation treatment:
   GGA     =    PE    GGA type
   LEXCH   =     8    internal setting for exchange type
   VOSKOWN=      0    Vosko Wilk Nusair interpolation
   LHFCALC =     F    Hartree Fock is set to
   LHFONE  =     F    Hartree Fock one center treatment
   AEXX    =    0.0000 exact exchange contribution

 Linear response parameters
   LEPSILON=     F    determine dielectric tensor
   LRPA    =     F    only Hartree local field effects (RPA)
   LNABLA  =     F    use nabla operator in PAW spheres
   LVEL    =     F    velocity operator in full k-point grid
   LINTERFAST=   F  fast interpolation
   KINTER  =     0    interpolate to denser k-point grid
   CSHIFT  =0.1000    complex shift for real part using Kramers Kronig
   OMEGAMAX=  -1.0    maximum frequency
   DEG_THRESHOLD= 0.2000000E-02 threshold for treating states as degnerate
   RTIME   =    0.100 relaxation time in fs

 Orbital magnetization related:
   ORBITALMAG=     F  switch on orbital magnetization
   LCHIMAG   =     F  perturbation theory with respect to B field
   DQ        =  0.001000  dq finite difference perturbation B field



--------------------------------------------------------------------------------------------------------


 Static calculation
 charge density and potential will be updated during run
 non-spin polarized calculation
 Variant of blocked Davidson
 Davidson routine will perform the subspace rotation
 perform sub-space diagonalisation
    after iterative eigenvector-optimisation
 modified Broyden-mixing scheme, WC =      100.0
 initial mixing is a Kerker type mixing with AMIX =  0.4000 and BMIX =      1.0000
 Hartree-type preconditioning will be used
 using additional bands            4
 reciprocal scheme for non local part
 use partial core corrections
 calculate Harris-corrections to forces 
   (improved forces if not selfconsistent)
 use gradient corrections 
 use of overlap-Matrix (Vanderbilt PP)
 Fermi-smearing in eV        SIGMA  =   0.03


--------------------------------------------------------------------------------------------------------


  energy-cutoff  :      600.00
  volume of cell :      132.02
      direct lattice vectors                 reciprocal lattice vectors
     0.000000000  4.041451884  4.041451884    -0.123717915  0.123717915  0.123717915
     4.041451884  0.000000000  4.041451884     0.123717915 -0.123717915  0.123717915
     4.041451884  4.041451884  0.000000000     0.123717915  0.123717915 -0.123717915

  length of vectors
     5.715476066  5.715476066  5.715476066     0.214285714  0.214285714  0.214285714


 
 k-points in units of 2pi/SCALE and weight: Gamma centered Monkhorst-Pack           
   0.00000000  0.00000000  0.00000000       0.001
  -0.08333333  0.08333333  0.08333333       0.005
  -0.16666667  0.16666667  0.16666667       0.005
  -0.25000000  0.25000000  0.25000000       0.005
  -0.33333333  0.33333333  0.33333333       0.005
  -0.41666667  0.41666667  0.41666667       0.005
  -0.50000000  0.50000000  0.50000000       0.002
   0.00000000  0.00000000  0.16666667       0.003
  -0.08333333  0.08333333  0.25000000       0.014
  -0.16666667  0.16666667  0.33333333       0.014
  -0.25000000  0.25000000  0.41666667       0.014
  -0.33333333  0.33333333  0.50000000       0.014
  -0.41666667  0.41666667  0.58333333       0.014
   0.50000000 -0.50000000 -0.33333333       0.014
   0.41666667 -0.41666667 -0.25000000       0.014
   0.33333333 -0.33333333 -0.16666667       0.014
   0.25000000 -0.25000000 -0.08333333       0.014
   0.16666667 -0.16666667  0.00000000       0.007
   0.00000000  0.00000000  0.33333333       0.003
  -0.08333333  0.08333333  0.41666667       0.014
  -0.16666667  0.16666667  0.50000000       0.014
  -0.25000000  0.25000000  0.58333333       0.014
  -0.33333333  0.33333333  0.66666667       0.014
   0.58333333 -0.58333333 -0.25000000       0.014
   0.50000000 -0.50000000 -0.16666667       0.014
   0.41666667 -0.41666667 -0.08333333       0.014
   0.33333333 -0.33333333  0.00000000       0.007
   0.00000000  0.00000000  0.50000000       0.003
  -0.08333333  0.08333333  0.58333333       0.014
  -0.16666667  0.16666667  0.66666667       0.014
  -0.25000000  0.25000000  0.75000000       0.014
   0.66666667 -0.66666667 -0.16666667       0.014
   0.58333333 -0.58333333 -0.08333333       0.014
   0.50000000 -0.50000000  0.00000000       0.007
   0.00000000  0.00000000  0.66666667       0.003
  -0.08333333  0.08333333  0.75000000       0.014
  -0.16666667  0.16666667  0.83333333       0.014
   0.75000000 -0.75000000 -0.08333333       0.014
   0.66666667 -0.66666667  0.00000000       0.007
   0.00000000  0.00000000  0.83333333       0.003
  -0.08333333  0.08333333  0.91666667       0.014
   0.83333333 -0.83333333  0.00000000       0.007
   0.00000000  0.00000000  1.00000000       0.002
   0.00000000  0.16666667  0.33333333       0.014
  -0.08333333  0.25000000  0.41666667       0.028
  -0.16666667  0.33333333  0.50000000       0.028
  -0.25000000  0.41666667  0.58333333       0.028
   0.66666667 -0.50000000 -0.33333333       0.014
   0.00000000  0.16666667  0.50000000       0.014
  -0.08333333  0.25000000  0.58333333       0.028
  -0.16666667  0.33333333  0.66666667       0.028
   0.75000000 -0.58333333 -0.25000000       0.028
   0.66666667 -0.50000000 -0.16666667       0.028
   0.58333333 -0.41666667 -0.08333333       0.028
   0.50000000 -0.33333333  0.00000000       0.014
  -0.00000000  0.16666667  0.66666667       0.014
  -0.08333333  0.25000000  0.75000000       0.028
   0.83333333 -0.66666667 -0.16666667       0.028
   0.75000000 -0.58333333 -0.08333333       0.028
   0.66666667 -0.50000000  0.00000000       0.014
   0.00000000  0.16666667  0.83333333       0.014
   0.91666667 -0.75000000 -0.08333333       0.028
   0.83333333 -0.66666667  0.00000000       0.014
   1.00000000 -0.83333333  0.00000000       0.007
   0.00000000  0.33333333  0.66666667       0.014
   0.91666667 -0.58333333 -0.25000000       0.028
   0.83333333 -0.50000000 -0.16666667       0.014
   1.00000000 -0.66666667 -0.16666667       0.014
   0.91666667 -0.58333333 -0.08333333       0.028
   0.83333333 -0.50000000  0.00000000       0.014
   1.00000000 -0.66666667  0.00000000       0.007
   1.00000000 -0.50000000  0.00000000       0.003
 
 k-points in reciprocal lattice and weights: Gamma centered Monkhorst-Pack           
   0.00000000  0.00000000  0.00000000       0.001
   0.08333333  0.00000000  0.00000000       0.005
   0.16666667  0.00000000  0.00000000       0.005
   0.25000000  0.00000000  0.00000000       0.005
   0.33333333  0.00000000  0.00000000       0.005
   0.41666667  0.00000000  0.00000000       0.005
   0.50000000  0.00000000  0.00000000       0.002
   0.08333333  0.08333333  0.00000000       0.003
   0.16666667  0.08333333  0.00000000       0.014
   0.25000000  0.08333333  0.00000000       0.014
   0.33333333  0.08333333  0.00000000       0.014
   0.41666667  0.08333333  0.00000000       0.014
   0.50000000  0.08333333  0.00000000       0.014
  -0.41666667  0.08333333  0.00000000       0.014
  -0.33333333  0.08333333  0.00000000       0.014
  -0.25000000  0.08333333  0.00000000       0.014
  -0.16666667  0.08333333  0.00000000       0.014
  -0.08333333  0.08333333  0.00000000       0.007
   0.16666667  0.16666667  0.00000000       0.003
   0.25000000  0.16666667  0.00000000       0.014
   0.33333333  0.16666667  0.00000000       0.014
   0.41666667  0.16666667  0.00000000       0.014
   0.50000000  0.16666667  0.00000000       0.014
  -0.41666667  0.16666667  0.00000000       0.014
  -0.33333333  0.16666667  0.00000000       0.014
  -0.25000000  0.16666667  0.00000000       0.014
  -0.16666667  0.16666667  0.00000000       0.007
   0.25000000  0.25000000  0.00000000       0.003
   0.33333333  0.25000000  0.00000000       0.014
   0.41666667  0.25000000  0.00000000       0.014
   0.50000000  0.25000000  0.00000000       0.014
  -0.41666667  0.25000000  0.00000000       0.014
  -0.33333333  0.25000000  0.00000000       0.014
  -0.25000000  0.25000000  0.00000000       0.007
   0.33333333  0.33333333  0.00000000       0.003
   0.41666667  0.33333333  0.00000000       0.014
   0.50000000  0.33333333  0.00000000       0.014
  -0.41666667  0.33333333  0.00000000       0.014
  -0.33333333  0.33333333  0.00000000       0.007
   0.41666667  0.41666667  0.00000000       0.003
   0.50000000  0.41666667  0.00000000       0.014
  -0.41666667  0.41666667  0.00000000       0.007
   0.50000000  0.50000000  0.00000000       0.002
   0.25000000  0.16666667  0.08333333       0.014
   0.33333333  0.16666667  0.08333333       0.028
   0.41666667  0.16666667  0.08333333       0.028
   0.50000000  0.16666667  0.08333333       0.028
  -0.41666667  0.16666667  0.08333333       0.014
   0.33333333  0.25000000  0.08333333       0.014
   0.41666667  0.25000000  0.08333333       0.028
   0.50000000  0.25000000  0.08333333       0.028
  -0.41666667  0.25000000  0.08333333       0.028
  -0.33333333  0.25000000  0.08333333       0.028
  -0.25000000  0.25000000  0.08333333       0.028
  -0.16666667  0.25000000  0.08333333       0.014
   0.41666667  0.33333333  0.08333333       0.014
   0.50000000  0.33333333  0.08333333       0.028
  -0.41666667  0.33333333  0.08333333       0.028
  -0.33333333  0.33333333  0.08333333       0.028
  -0.25000000  0.33333333  0.08333333       0.014
   0.50000000  0.41666667  0.08333333       0.014
  -0.41666667  0.41666667  0.08333333       0.028
  -0.33333333  0.41666667  0.08333333       0.014
  -0.41666667  0.50000000  0.08333333       0.007
   0.50000000  0.33333333  0.16666667       0.014
  -0.41666667  0.33333333  0.16666667       0.028
  -0.33333333  0.33333333  0.16666667       0.014
  -0.41666667  0.41666667  0.16666667       0.014
  -0.33333333  0.41666667  0.16666667       0.028
  -0.25000000  0.41666667  0.16666667       0.014
  -0.33333333  0.50000000  0.16666667       0.007
  -0.25000000  0.50000000  0.25000000       0.003
 
 position of ions in fractional coordinates (direct lattice) 
   0.00000000  0.00000000  0.00000000
   0.25000000  0.25000000  0.25000000
 
 position of ions in cartesian coordinates  (Angst):
   0.00000000  0.00000000  0.00000000
   2.02072594  2.02072594  2.02072594
 


--------------------------------------------------------------------------------------------------------


 k-point  1 :   0.0000 0.0000 0.0000  plane waves:    4477
 k-point  2 :   0.0833 0.0000 0.0000  plane waves:    4414
 k-point  3 :   0.1667 0.0000 0.0000  plane waves:    4423
 k-point  4 :   0.2500 0.0000 0.0000  plane waves:    4405
 k-point  5 :   0.3333 0.0000 0.0000  plane waves:    4419
 k-point  6 :   0.4167 0.0000 0.0000  plane waves:    4401
 k-point  7 :   0.5000 0.0000 0.0000  plane waves:    4398
 k-point  8 :   0.0833 0.0833 0.0000  plane waves:    4416
 k-point  9 :   0.1667 0.0833 0.0000  plane waves:    4427
 k-point 10 :   0.2500 0.0833 0.0000  plane waves:    4419
 k-point 11 :   0.3333 0.0833 0.0000  plane waves:    4400
 k-point 12 :   0.4167 0.0833 0.0000  plane waves:    4407
 k-point 13 :   0.5000 0.0833 0.0000  plane waves:    4415
 k-point 14 :  -0.4167 0.0833 0.0000  plane waves:    4414
 k-point 15 :  -0.3333 0.0833 0.0000  plane waves:    4411
 k-point 16 :  -0.2500 0.0833 0.0000  plane waves:    4416
 k-point 17 :  -0.1667 0.0833 0.0000  plane waves:    4412
 k-point 18 :  -0.0833 0.0833 0.0000  plane waves:    4419
 k-point 19 :   0.1667 0.1667 0.0000  plane waves:    4428
 k-point 20 :   0.2500 0.1667 0.0000  plane waves:    4423
 k-point 21 :   0.3333 0.1667 0.0000  plane waves:    4417
 k-point 22 :   0.4167 0.1667 0.0000  plane waves:    4399
 k-point 23 :   0.5000 0.1667 0.0000  plane waves:    4400
 k-point 24 :  -0.4167 0.1667 0.0000  plane waves:    4402
 k-point 25 :  -0.3333 0.1667 0.0000  plane waves:    4414
 k-point 26 :  -0.2500 0.1667 0.0000  plane waves:    4406
 k-point 27 :  -0.1667 0.1667 0.0000  plane waves:    4419
 k-point 28 :   0.2500 0.2500 0.0000  plane waves:    4432
 k-point 29 :   0.3333 0.2500 0.0000  plane waves:    4419
 k-point 30 :   0.4167 0.2500 0.0000  plane waves:    4408
 k-point 31 :   0.5000 0.2500 0.0000  plane waves:    4404
 k-point 32 :  -0.4167 0.2500 0.0000  plane waves:    4404
 k-point 33 :  -0.3333 0.2500 0.0000  plane waves:    4409
 k-point 34 :  -0.2500 0.2500 0.0000  plane waves:    4403
 k-point 35 :   0.3333 0.3333 0.0000  plane waves:    4404
 k-point 36 :   0.4167 0.3333 0.0000  plane waves:    4399
 k-point 37 :   0.5000 0.3333 0.0000  plane waves:    4389
 k-point 38 :  -0.4167 0.3333 0.0000  plane waves:    4396
 k-point 39 :  -0.3333 0.3333 0.0000  plane waves:    4412
 k-point 40 :   0.4167 0.4167 0.0000  plane waves:    4376
 k-point 41 :   0.5000 0.4167 0.0000  plane waves:    4389
 k-point 42 :  -0.4167 0.4167 0.0000  plane waves:    4384
 k-point 43 :   0.5000 0.5000 0.0000  plane waves:    4360
 k-point 44 :   0.2500 0.1667 0.0833  plane waves:    4416
 k-point 45 :   0.3333 0.1667 0.0833  plane waves:    4413
 k-point 46 :   0.4167 0.1667 0.0833  plane waves:    4398
 k-point 47 :   0.5000 0.1667 0.0833  plane waves:    4407
 k-point 48 :  -0.4167 0.1667 0.0833  plane waves:    4404
 k-point 49 :   0.3333 0.2500 0.0833  plane waves:    4427
 k-point 50 :   0.4167 0.2500 0.0833  plane waves:    4412
 k-point 51 :   0.5000 0.2500 0.0833  plane waves:    4411
 k-point 52 :  -0.4167 0.2500 0.0833  plane waves:    4402
 k-point 53 :  -0.3333 0.2500 0.0833  plane waves:    4406
 k-point 54 :  -0.2500 0.2500 0.0833  plane waves:    4409
 k-point 55 :  -0.1667 0.2500 0.0833  plane waves:    4416
 k-point 56 :   0.4167 0.3333 0.0833  plane waves:    4409
 k-point 57 :   0.5000 0.3333 0.0833  plane waves:    4407
 k-point 58 :  -0.4167 0.3333 0.0833  plane waves:    4396
 k-point 59 :  -0.3333 0.3333 0.0833  plane waves:    4398
 k-point 60 :  -0.2500 0.3333 0.0833  plane waves:    4398
 k-point 61 :   0.5000 0.4167 0.0833  plane waves:    4394
 k-point 62 :  -0.4167 0.4167 0.0833  plane waves:    4389
 k-point 63 :  -0.3333 0.4167 0.0833  plane waves:    4396
 k-point 64 :  -0.4167 0.5000 0.0833  plane waves:    4386
 k-point 65 :   0.5000 0.3333 0.1667  plane waves:    4418
 k-point 66 :  -0.4167 0.3333 0.1667  plane waves:    4403
 k-point 67 :  -0.3333 0.3333 0.1667  plane waves:    4408
 k-point 68 :  -0.4167 0.4167 0.1667  plane waves:    4388
 k-point 69 :  -0.3333 0.4167 0.1667  plane waves:    4394
 k-point 70 :  -0.2500 0.4167 0.1667  plane waves:    4403
 k-point 71 :  -0.3333 0.5000 0.1667  plane waves:    4388
 k-point 72 :  -0.2500 0.5000 0.2500  plane waves:    4388

 maximum and minimum number of plane-waves per node :      4477     4360

 maximum number of plane-waves:      4477
 maximum index in each direction: 
   IXMAX=   11   IYMAX=   11   IZMAX=   11
   IXMIN=  -11   IYMIN=  -11   IZMIN=  -11

 WARNING: aliasing errors must be expected set NGX to  46 to avoid them
 WARNING: aliasing errors must be expected set NGY to  46 to avoid them
 WARNING: aliasing errors must be expected set NGZ to  46 to avoid them
 aliasing errors are usually negligible using standard VASP settings
 and one can safely disregard these warnings

 serial   3D FFT for wavefunctions
 parallel 3D FFT for charge:
    minimum data exchange during FFTs selected (reduces bandwidth)


 total amount of memory used by VASP on root node    71007. kBytes
========================================================================

   base      :      30000. kBytes
   nonl-proj :      20787. kBytes
   fftplans  :       3408. kBytes
   grid      :       6448. kBytes
   one-center:          6. kBytes
   wavefun   :      10358. kBytes
 
     INWAV:  cpu time    0.00: real time    0.00
 Broyden mixing: mesh for mixing (old mesh)
   NGX = 23   NGY = 23   NGZ = 23
  (NGX  = 72   NGY  = 72   NGZ  = 72)
  gives a total of  12167 points

 initial charge density was supplied:
 charge density of overlapping atoms calculated
 number of electron       8.0000000 magnetization 
 keeping initial charge density in first step


--------------------------------------------------------------------------------------------------------


 Maximum index for augmentation-charges         2876 (set IRDMAX)


--------------------------------------------------------------------------------------------------------


 First call to EWALD:  gamma=   0.348
 Maximum number of real-space cells 3x 3x 3
 Maximum number of reciprocal cells 3x 3x 3

 FEWALD executed in parallel
    FEWALD:  cpu time    0.00: real time    0.00


----------------------------------------- Iteration    1(   1)  ---------------------------------------


    POTLOK:  cpu time    0.05: real time    0.06
    SETDIJ:  cpu time    0.00: real time    0.00
     EDDAV:  cpu time    1.09: real time    1.09
       DOS:  cpu time    0.00: real time    0.00
    --------------------------------------------
      LOOP:  cpu time    1.14: real time    1.15

 eigenvalue-minimisations  :  1152
 total energy-change (2. order) : 0.1165840E+02  (-0.2494017E+03)
 number of electron       8.0000000 magnetization 
 augmentation part        8.0000000 magnetization 

 Free energy of the ion-electron system (eV)
  ---------------------------------------------------
  alpha Z        PSCENC =         1.01993287
  Ewald energy   TEWEN  =      -153.54629671
  -Hartree energ DENC   =       -35.18364891
  -exchange      EXHF   =         0.00000000
  -V(xc)+E(xc)   XCENC  =       -21.57824093
  PAW double counting   =        65.95520812      -30.76852678
  entropy T*S    EENTRO =        -0.00599508
  eigenvalues    EBANDS =       -20.36715042
  atomic energy  EATOM  =       206.13311910
  ---------------------------------------------------
  free energy    TOTEN  =        11.65840125 eV

  energy without entropy =       11.66439633  energy(sigma->0) =       11.66139879


--------------------------------------------------------------------------------------------------------




----------------------------------------- Iteration    1(   2)  ---------------------------------------


     EDDAV:  cpu time    1.67: real time    1.68
       DOS:  cpu time    0.00: real time    0.00
    --------------------------------------------
      LOOP:  cpu time    1.67: real time    1.68

 eigenvalue-minimisations  :  2048
 total energy-change (2. order) :-0.1621930E+02  (-0.1603782E+02)
 number of electron       8.0000000 magnetization 
 augmentation part        8.0000000 magnetization 

 Free energy of the ion-electron system (eV)
  ---------------------------------------------------
  alpha Z        PSCENC =         1.01993287
  Ewald energy   TEWEN  =      -153.54629671
  -Hartree energ DENC   =       -35.18364891
  -exchange      EXHF   =         0.00000000
  -V(xc)+E(xc)   XCENC  =       -21.57824093
  PAW double counting   =        65.95520812      -30.76852678
  entropy T*S    EENTRO =        -0.00354006
  eigenvalues    EBANDS =       -36.58890493
  atomic energy  EATOM  =       206.13311910
  ---------------------------------------------------
  free energy    TOTEN  =        -4.56089824 eV

  energy without entropy =       -4.55735818  energy(sigma->0) =       -4.55912821


--------------------------------------------------------------------------------------------------------




----------------------------------------- Iteration    1(   3)  ---------------------------------------


     EDDAV:  cpu time    1.19: real time    1.19
       DOS:  cpu time    0.00: real time    0.00
    --------------------------------------------
      LOOP:  cpu time    1.19: real time    1.20

 eigenvalue-minimisations  :  1328
 total energy-change (2. order) :-0.5743037E+00  (-0.5728110E+00)
 number of electron       8.0000000 magnetization 
 augmentation part        8.0000000 magnetization 

 Free energy of the ion-electron system (eV)
  ---------------------------------------------------
  alpha Z        PSCENC =         1.01993287
  Ewald energy   TEWEN  =      -153.54629671
  -Hartree energ DENC   =       -35.18364891
  -exchange      EXHF   =         0.00000000
  -V(xc)+E(xc)   XCENC  =       -21.57824093
  PAW double counting   =        65.95520812      -30.76852678
  entropy T*S    EENTRO =        -0.00396210
  eigenvalues    EBANDS =       -37.16278655
  atomic energy  EATOM  =       206.13311910
  ---------------------------------------------------
  free energy    TOTEN  =        -5.13520190 eV

  energy without entropy =       -5.13123980  energy(sigma->0) =       -5.13322085


--------------------------------------------------------------------------------------------------------




----------------------------------------- Iteration    1(   4)  ---------------------------------------


     EDDAV:  cpu time    1.31: real time    1.32
       DOS:  cpu time    0.00: real time    0.00
    --------------------------------------------
      LOOP:  cpu time    1.31: real time    1.32

 eigenvalue-minimisations  :  1520
 total energy-change (2. order) :-0.6760490E-02  (-0.6755205E-02)
 number of electron       8.0000000 magnetization 
 augmentation part        8.0000000 magnetization 

 Free energy of the ion-electron system (eV)
  ---------------------------------------------------
  alpha Z        PSCENC =         1.01993287
  Ewald energy   TEWEN  =      -153.54629671
  -Hartree energ DENC   =       -35.18364891
  -exchange      EXHF   =         0.00000000
  -V(xc)+E(xc)   XCENC  =       -21.57824093
  PAW double counting   =        65.95520812      -30.76852678
  entropy T*S    EENTRO =        -0.00399167
  eigenvalues    EBANDS =       -37.16951746
  atomic energy  EATOM  =       206.13311910
  ---------------------------------------------------
  free energy    TOTEN  =        -5.14196239 eV

  energy without entropy =       -5.13797072  energy(sigma->0) =       -5.13996655


--------------------------------------------------------------------------------------------------------




----------------------------------------- Iteration    1(   5)  ---------------------------------------


     EDDAV:  cpu time    1.20: real time    1.21
       DOS:  cpu time    0.00: real time    0.00
    CHARGE:  cpu time    0.09: real time    0.09
    MIXING:  cpu time    0.00: real time    0.00
    --------------------------------------------
      LOOP:  cpu time    1.29: real time    1.30

 eigenvalue-minimisations  :  1352
 total energy-change (2. order) :-0.5529022E-04  (-0.5528100E-04)
 number of electron       7.9999998 magnetization 
 augmentation part       -0.5205788 magnetization 

 Broyden mixing:
  rms(total) = 0.10298E+00    rms(broyden)= 0.10298E+00
  rms(prec ) = 0.24851E+00
  weight for this iteration     100.00

 Free energy of the ion-electron system (eV)
  ---------------------------------------------------
  alpha Z        PSCENC =         1.01993287
  Ewald energy   TEWEN  =      -153.54629671
  -Hartree energ DENC   =       -35.18364891
  -exchange      EXHF   =         0.00000000
  -V(xc)+E(xc)   XCENC  =       -21.57824093
  PAW double counting   =        65.95520812      -30.76852678
  entropy T*S    EENTRO =        -0.00399223
  eigenvalues    EBANDS =       -37.16957220
  atomic energy  EATOM  =       206.13311910
  ---------------------------------------------------
  free energy    TOTEN  =        -5.14201768 eV

  energy without entropy =       -5.13802545  energy(sigma->0) =       -5.14002157


--------------------------------------------------------------------------------------------------------




----------------------------------------- Iteration    1(   6)  ---------------------------------------


    POTLOK:  cpu time    0.05: real time    0.06
    SETDIJ:  cpu time    0.00: real time    0.00
     EDDAV:  cpu time    1.10: real time    1.10
       DOS:  cpu time    0.00: real time    0.00
    CHARGE:  cpu time    0.09: real time    0.09
    MIXING:  cpu time    0.00: real time    0.00
    --------------------------------------------
      LOOP:  cpu time    1.25: real time    1.26

 eigenvalue-minimisations  :  1200
 total energy-change (2. order) :-0.3823297E-02  (-0.1507947E-02)
 number of electron       7.9999998 magnetization 
 augmentation part       -0.5249503 magnetization 

 Broyden mixing:
  rms(total) = 0.65175E-01    rms(broyden)= 0.65175E-01
  rms(prec ) = 0.15699E+00
  weight for this iteration     100.00

 eigenvalues of (default mixing * dielectric matrix)
  average eigenvalue GAMMA=   2.6567
  2.6567

 Free energy of the ion-electron system (eV)
  ---------------------------------------------------
  alpha Z        PSCENC =         1.01993287
  Ewald energy   TEWEN  =      -153.54629671
  -Hartree energ DENC   =       -34.69240791
  -exchange      EXHF   =         0.00000000
  -V(xc)+E(xc)   XCENC  =       -21.63779771
  PAW double counting   =        64.66292638      -29.42953155
  entropy T*S    EENTRO =        -0.00395551
  eigenvalues    EBANDS =       -37.65182993
  atomic energy  EATOM  =       206.13311910
  ---------------------------------------------------
  free energy    TOTEN  =        -5.14584098 eV

  energy without entropy =       -5.14188547  energy(sigma->0) =       -5.14386322


--------------------------------------------------------------------------------------------------------




----------------------------------------- Iteration    1(   7)  ---------------------------------------


    POTLOK:  cpu time    0.05: real time    0.06
    SETDIJ:  cpu time    0.00: real time    0.00
     EDDAV:  cpu time    1.17: real time    1.17
       DOS:  cpu time    0.00: real time    0.00
    CHARGE:  cpu time    0.09: real time    0.09
    MIXING:  cpu time    0.00: real time    0.00
    --------------------------------------------
      LOOP:  cpu time    1.32: real time    1.33

 eigenvalue-minimisations  :  1296
 total energy-change (2. order) :-0.5480941E-02  (-0.3232294E-02)
 number of electron       7.9999998 magnetization 
 augmentation part       -0.5321211 magnetization 

 Broyden mixing:
  rms(total) = 0.84533E-02    rms(broyden)= 0.84532E-02
  rms(prec ) = 0.24070E-01
  weight for this iteration     100.00

 eigenvalues of (default mixing * dielectric matrix)
  average eigenvalue GAMMA=   2.4756
  2.4756  2.4756

 Free energy of the ion-electron system (eV)
  ---------------------------------------------------
  alpha Z        PSCENC =         1.01993287
  Ewald energy   TEWEN  =      -153.54629671
  -Hartree energ DENC   =       -34.11613184
  -exchange      EXHF   =         0.00000000
  -V(xc)+E(xc)   XCENC  =       -21.70840422
  PAW double counting   =        62.96664545      -27.67280223
  entropy T*S    EENTRO =        -0.00391762
  eigenvalues    EBANDS =       -38.22346670
  atomic energy  EATOM  =       206.13311910
  ---------------------------------------------------
  free energy    TOTEN  =        -5.15132192 eV

  energy without entropy =       -5.14740429  energy(sigma->0) =       -5.14936311


--------------------------------------------------------------------------------------------------------




----------------------------------------- Iteration    1(   8)  ---------------------------------------


    POTLOK:  cpu time    0.05: real time    0.06
    SETDIJ:  cpu time    0.00: real time    0.00
     EDDAV:  cpu time    1.09: real time    1.09
       DOS:  cpu time    0.00: real time    0.00
    CHARGE:  cpu time    0.09: real time    0.09
    MIXING:  cpu time    0.00: real time    0.00
    --------------------------------------------
      LOOP:  cpu time    1.24: real time    1.25

 eigenvalue-minimisations  :  1184
 total energy-change (2. order) :-0.9530937E-04  (-0.1897663E-03)
 number of electron       7.9999998 magnetization 
 augmentation part       -0.5310575 magnetization 

 Broyden mixing:
  rms(total) = 0.28019E-02    rms(broyden)= 0.28019E-02
  rms(prec ) = 0.73715E-02
  weight for this iteration     100.00

 eigenvalues of (default mixing * dielectric matrix)
  average eigenvalue GAMMA=   2.0707
  1.0753  3.0162  2.1204

 Free energy of the ion-electron system (eV)
  ---------------------------------------------------
  alpha Z        PSCENC =         1.01993287
  Ewald energy   TEWEN  =      -153.54629671
  -Hartree energ DENC   =       -34.35943200
  -exchange      EXHF   =         0.00000000
  -V(xc)+E(xc)   XCENC  =       -21.68754630
  PAW double counting   =        63.45609003      -28.18411072
  entropy T*S    EENTRO =        -0.00390965
  eigenvalues    EBANDS =       -37.97926385
  atomic energy  EATOM  =       206.13311910
  ---------------------------------------------------
  free energy    TOTEN  =        -5.15141723 eV

  energy without entropy =       -5.14750758  energy(sigma->0) =       -5.14946240


--------------------------------------------------------------------------------------------------------




----------------------------------------- Iteration    1(   9)  ---------------------------------------


    POTLOK:  cpu time    0.05: real time    0.06
    SETDIJ:  cpu time    0.00: real time    0.00
     EDDAV:  cpu time    1.15: real time    1.15
       DOS:  cpu time    0.00: real time    0.00
    CHARGE:  cpu time    0.09: real time    0.09
    MIXING:  cpu time    0.00: real time    0.00
    --------------------------------------------
      LOOP:  cpu time    1.30: real time    1.31

 eigenvalue-minimisations  :  1280
 total energy-change (2. order) :-0.6948742E-04  (-0.6493300E-05)
 number of electron       7.9999998 magnetization 
 augmentation part       -0.5312749 magnetization 

 Broyden mixing:
  rms(total) = 0.10247E-02    rms(broyden)= 0.10247E-02
  rms(prec ) = 0.25532E-02
  weight for this iteration     100.00

 eigenvalues of (default mixing * dielectric matrix)
  average eigenvalue GAMMA=   2.3585
  1.0021  3.1045  3.1045  2.2230

 Free energy of the ion-electron system (eV)
  ---------------------------------------------------
  alpha Z        PSCENC =         1.01993287
  Ewald energy   TEWEN  =      -153.54629671
  -Hartree energ DENC   =       -34.36660507
  -exchange      EXHF   =         0.00000000
  -V(xc)+E(xc)   XCENC  =       -21.68771582
  PAW double counting   =        63.38116138      -28.10713152
  entropy T*S    EENTRO =        -0.00390718
  eigenvalues    EBANDS =       -37.97404376
  atomic energy  EATOM  =       206.13311910
  ---------------------------------------------------
  free energy    TOTEN  =        -5.15148671 eV

  energy without entropy =       -5.14757953  energy(sigma->0) =       -5.14953312


--------------------------------------------------------------------------------------------------------




----------------------------------------- Iteration    1(  10)  ---------------------------------------


    POTLOK:  cpu time    0.06: real time    0.06
    SETDIJ:  cpu time    0.00: real time    0.00
     EDDAV:  cpu time    1.12: real time    1.12
       DOS:  cpu time    0.00: real time    0.00
    CHARGE:  cpu time    0.09: real time    0.09
    MIXING:  cpu time    0.00: real time    0.00
    --------------------------------------------
      LOOP:  cpu time    1.27: real time    1.28

 eigenvalue-minimisations  :  1168
 total energy-change (2. order) :-0.3926177E-04  (-0.5444229E-05)
 number of electron       7.9999998 magnetization 
 augmentation part       -0.5312335 magnetization 

 Broyden mixing:
  rms(total) = 0.25452E-03    rms(broyden)= 0.25452E-03
  rms(prec ) = 0.58525E-03
  weight for this iteration     100.00

 eigenvalues of (default mixing * dielectric matrix)
  average eigenvalue GAMMA=   2.1270
  3.5579  2.7557  2.2491  1.0362  1.0362

 Free energy of the ion-electron system (eV)
  ---------------------------------------------------
  alpha Z        PSCENC =         1.01993287
  Ewald energy   TEWEN  =      -153.54629671
  -Hartree energ DENC   =       -34.38396148
  -exchange      EXHF   =         0.00000000
  -V(xc)+E(xc)   XCENC  =       -21.68595765
  PAW double counting   =        63.30085185      -28.02415353
  entropy T*S    EENTRO =        -0.00390539
  eigenvalues    EBANDS =       -37.96115503
  atomic energy  EATOM  =       206.13311910
  ---------------------------------------------------
  free energy    TOTEN  =        -5.15152598 eV

  energy without entropy =       -5.14762058  energy(sigma->0) =       -5.14957328


--------------------------------------------------------------------------------------------------------




----------------------------------------- Iteration    1(  11)  ---------------------------------------


    POTLOK:  cpu time    0.05: real time    0.06
    SETDIJ:  cpu time    0.00: real time    0.00
     EDDAV:  cpu time    1.45: real time    1.45
       DOS:  cpu time    0.00: real time    0.00
    CHARGE:  cpu time    0.09: real time    0.09
    MIXING:  cpu time    0.00: real time    0.00
    --------------------------------------------
      LOOP:  cpu time    1.60: real time    1.61

 eigenvalue-minimisations  :  1704
 total energy-change (2. order) :-0.1162459E-05  (-0.9481741E-07)
 number of electron       7.9999998 magnetization 
 augmentation part       -0.5312481 magnetization 

 Broyden mixing:
  rms(total) = 0.98850E-04    rms(broyden)= 0.98850E-04
  rms(prec ) = 0.20229E-03
  weight for this iteration     100.00

 eigenvalues of (default mixing * dielectric matrix)
  average eigenvalue GAMMA=   2.2807
  3.8651  3.0791  2.4698  2.2823  0.9938  0.9938

 Free energy of the ion-electron system (eV)
  ---------------------------------------------------
  alpha Z        PSCENC =         1.01993287
  Ewald energy   TEWEN  =      -153.54629671
  -Hartree energ DENC   =       -34.38676837
  -exchange      EXHF   =         0.00000000
  -V(xc)+E(xc)   XCENC  =       -21.68565644
  PAW double counting   =        63.30735105      -28.03093511
  entropy T*S    EENTRO =        -0.00390517
  eigenvalues    EBANDS =       -37.95836835
  atomic energy  EATOM  =       206.13311910
  ---------------------------------------------------
  free energy    TOTEN  =        -5.15152714 eV

  energy without entropy =       -5.14762197  energy(sigma->0) =       -5.14957455


--------------------------------------------------------------------------------------------------------




----------------------------------------- Iteration    1(  12)  ---------------------------------------


    POTLOK:  cpu time    0.05: real time    0.06
    SETDIJ:  cpu time    0.00: real time    0.00
     EDDAV:  cpu time    1.12: real time    1.12
       DOS:  cpu time    0.00: real time    0.00
    CHARGE:  cpu time    0.09: real time    0.09
    MIXING:  cpu time    0.00: real time    0.00
    --------------------------------------------
      LOOP:  cpu time    1.27: real time    1.28

 eigenvalue-minimisations  :  1152
 total energy-change (2. order) :-0.9893860E-06  (-0.7476312E-07)
 number of electron       7.9999998 magnetization 
 augmentation part       -0.5312395 magnetization 

 Broyden mixing:
  rms(total) = 0.23212E-04    rms(broyden)= 0.23212E-04
  rms(prec ) = 0.54029E-04
  weight for this iteration     100.00

 eigenvalues of (default mixing * dielectric matrix)
  average eigenvalue GAMMA=   2.2072
  3.9424  2.9483  2.9483  2.1176  1.5042  0.9949  0.9949

 Free energy of the ion-electron system (eV)
  ---------------------------------------------------
  alpha Z        PSCENC =         1.01993287
  Ewald energy   TEWEN  =      -153.54629671
  -Hartree energ DENC   =       -34.38770677
  -exchange      EXHF   =         0.00000000
  -V(xc)+E(xc)   XCENC  =       -21.68539808
  PAW double counting   =        63.31681531      -28.04069512
  entropy T*S    EENTRO =        -0.00390520
  eigenvalues    EBANDS =       -37.95739353
  atomic energy  EATOM  =       206.13311910
  ---------------------------------------------------
  free energy    TOTEN  =        -5.15152813 eV

  energy without entropy =       -5.14762293  energy(sigma->0) =       -5.14957553


--------------------------------------------------------------------------------------------------------




----------------------------------------- Iteration    1(  13)  ---------------------------------------


    POTLOK:  cpu time    0.05: real time    0.08
    SETDIJ:  cpu time    0.00: real time    0.00
     EDDAV:  cpu time    1.32: real time    1.35
       DOS:  cpu time    0.00: real time    0.00
    CHARGE:  cpu time    0.10: real time    0.09
    MIXING:  cpu time    0.00: real time    0.00
    --------------------------------------------
      LOOP:  cpu time    1.47: real time    1.54

 eigenvalue-minimisations  :  1560
 total energy-change (2. order) : 0.7481441E-07  (-0.2105173E-08)
 number of electron       7.9999998 magnetization 
 augmentation part       -0.5312437 magnetization 

 Broyden mixing:
  rms(total) = 0.58802E-05    rms(broyden)= 0.58801E-05
  rms(prec ) = 0.15516E-04
  weight for this iteration     100.00

 eigenvalues of (default mixing * dielectric matrix)
  average eigenvalue GAMMA=   2.2234
  4.0133  3.0791  3.0791  2.2375  2.3998  1.0152  1.0152  0.9484

 Free energy of the ion-electron system (eV)
  ---------------------------------------------------
  alpha Z        PSCENC =         1.01993287
  Ewald energy   TEWEN  =      -153.54629671
  -Hartree energ DENC   =       -34.38722776
  -exchange      EXHF   =         0.00000000
  -V(xc)+E(xc)   XCENC  =       -21.68543993
  PAW double counting   =        63.31538203      -28.03920740
  entropy T*S    EENTRO =        -0.00390520
  eigenvalues    EBANDS =       -37.95788505
  atomic energy  EATOM  =       206.13311910
  ---------------------------------------------------
  free energy    TOTEN  =        -5.15152805 eV

  energy without entropy =       -5.14762285  energy(sigma->0) =       -5.14957545


--------------------------------------------------------------------------------------------------------




----------------------------------------- Iteration    1(  14)  ---------------------------------------


    POTLOK:  cpu time    0.05: real time    0.08
    SETDIJ:  cpu time    0.00: real time    0.00
     EDDAV:  cpu time    1.05: real time    1.07
       DOS:  cpu time    0.00: real time    0.00
    CHARGE:  cpu time    0.09: real time    0.09
    MIXING:  cpu time    0.00: real time    0.00
    --------------------------------------------
      LOOP:  cpu time    1.20: real time    1.25

 eigenvalue-minimisations  :  1152
 total energy-change (2. order) : 0.1196750E-07  (-0.2621502E-09)
 number of electron       7.9999998 magnetization 
 augmentation part       -0.5312431 magnetization 

 Broyden mixing:
  rms(total) = 0.12905E-05    rms(broyden)= 0.12905E-05
  rms(prec ) = 0.31418E-05
  weight for this iteration     100.00

 eigenvalues of (default mixing * dielectric matrix)
  average eigenvalue GAMMA=   2.0994
  3.9683  3.1627  2.7533  2.7533  2.1690  1.1466  1.0045  1.0045  0.9328

 Free energy of the ion-electron system (eV)
  ---------------------------------------------------
  alpha Z        PSCENC =         1.01993287
  Ewald energy   TEWEN  =      -153.54629671
  -Hartree energ DENC   =       -34.38736814
  -exchange      EXHF   =         0.00000000
  -V(xc)+E(xc)   XCENC  =       -21.68543389
  PAW double counting   =        63.31501838      -28.03883885
  entropy T*S    EENTRO =        -0.00390520
  eigenvalues    EBANDS =       -37.95775560
  atomic energy  EATOM  =       206.13311910
  ---------------------------------------------------
  free energy    TOTEN  =        -5.15152804 eV

  energy without entropy =       -5.14762284  energy(sigma->0) =       -5.14957544


--------------------------------------------------------------------------------------------------------




----------------------------------------- Iteration    1(  15)  ---------------------------------------


    POTLOK:  cpu time    0.05: real time    0.08
    SETDIJ:  cpu time    0.00: real time    0.00
     EDDAV:  cpu time    0.74: real time    0.76
       DOS:  cpu time    0.00: real time    0.00
    CHARGE:  cpu time    0.09: real time    0.09
    MIXING:  cpu time    0.00: real time    0.00
    --------------------------------------------
      LOOP:  cpu time    0.89: real time    0.94

 eigenvalue-minimisations  :   640
 total energy-change (2. order) : 0.8174936E-09  (-0.4427460E-11)
 number of electron       7.9999998 magnetization 
 augmentation part       -0.5312429 magnetization 

 Broyden mixing:
  rms(total) = 0.17409E-06    rms(broyden)= 0.17409E-06
  rms(prec ) = 0.32394E-06
  weight for this iteration     100.00

 eigenvalues of (default mixing * dielectric matrix)
  average eigenvalue GAMMA=   2.1454
  3.9839  3.1680  2.1783  2.7777  2.7777  2.5837  1.0251  1.0251  0.9802  0.9539

 Free energy of the ion-electron system (eV)
  ---------------------------------------------------
  alpha Z        PSCENC =         1.01993287
  Ewald energy   TEWEN  =      -153.54629671
  -Hartree energ DENC   =       -34.38738387
  -exchange      EXHF   =         0.00000000
  -V(xc)+E(xc)   XCENC  =       -21.68543325
  PAW double counting   =        63.31499978      -28.03881997
  entropy T*S    EENTRO =        -0.00390520
  eigenvalues    EBANDS =       -37.95774078
  atomic energy  EATOM  =       206.13311910
  ---------------------------------------------------
  free energy    TOTEN  =        -5.15152804 eV

  energy without entropy =       -5.14762284  energy(sigma->0) =       -5.14957544


--------------------------------------------------------------------------------------------------------




----------------------------------------- Iteration    1(  16)  ---------------------------------------


    POTLOK:  cpu time    0.05: real time    0.08
    SETDIJ:  cpu time    0.00: real time    0.00
     EDDAV:  cpu time    0.69: real time    0.71
       DOS:  cpu time    0.00: real time    0.00
    CHARGE:  cpu time    0.09: real time    0.09
    MIXING:  cpu time    0.00: real time    0.00
    --------------------------------------------
      LOOP:  cpu time    0.84: real time    0.89

 eigenvalue-minimisations  :   576
 total energy-change (2. order) :-0.6413075E-09  (-0.1361070E-11)
 number of electron       7.9999998 magnetization 
 augmentation part       -0.5312429 magnetization 

 Broyden mixing:
  rms(total) = 0.52924E-07    rms(broyden)= 0.52921E-07
  rms(prec ) = 0.11462E-06
  weight for this iteration     100.00

 eigenvalues of (default mixing * dielectric matrix)
  average eigenvalue GAMMA=   2.0441
  3.9840  3.0954  2.9486  2.6820  2.6820  2.1805  1.0367  1.0367  0.9766  0.9315
  0.9315

 Free energy of the ion-electron system (eV)
  ---------------------------------------------------
  alpha Z        PSCENC =         1.01993287
  Ewald energy   TEWEN  =      -153.54629671
  -Hartree energ DENC   =       -34.38738237
  -exchange      EXHF   =         0.00000000
  -V(xc)+E(xc)   XCENC  =       -21.68543342
  PAW double counting   =        63.31502034      -28.03884082
  entropy T*S    EENTRO =        -0.00390520
  eigenvalues    EBANDS =       -37.95774183
  atomic energy  EATOM  =       206.13311910
  ---------------------------------------------------
  free energy    TOTEN  =        -5.15152804 eV

  energy without entropy =       -5.14762284  energy(sigma->0) =       -5.14957544


--------------------------------------------------------------------------------------------------------




----------------------------------------- Iteration    1(  17)  ---------------------------------------


    POTLOK:  cpu time    0.05: real time    0.08
    SETDIJ:  cpu time    0.00: real time    0.00
     EDDAV:  cpu time    0.70: real time    0.71
       DOS:  cpu time    0.00: real time    0.00
    CHARGE:  cpu time    0.09: real time    0.09
    MIXING:  cpu time    0.00: real time    0.00
    --------------------------------------------
      LOOP:  cpu time    0.84: real time    0.89

 eigenvalue-minimisations  :   576
 total energy-change (2. order) :-0.2827392E-09  ( 0.2759767E-13)
 number of electron       7.9999998 magnetization 
 augmentation part       -0.5312429 magnetization 

 Broyden mixing:
  rms(total) = 0.27891E-07    rms(broyden)= 0.27887E-07
  rms(prec ) = 0.51029E-07
  weight for this iteration     100.00

 eigenvalues of (default mixing * dielectric matrix)
  average eigenvalue GAMMA=   2.0645
  3.9756  3.1009  2.9270  2.9270  2.5671  2.2233  2.1089  1.0649  0.9876  0.9876
  0.9523  0.9523

 Free energy of the ion-electron system (eV)
  ---------------------------------------------------
  alpha Z        PSCENC =         1.01993287
  Ewald energy   TEWEN  =      -153.54629671
  -Hartree energ DENC   =       -34.38738255
  -exchange      EXHF   =         0.00000000
  -V(xc)+E(xc)   XCENC  =       -21.68543335
  PAW double counting   =        63.31502870      -28.03884938
  entropy T*S    EENTRO =        -0.00390520
  eigenvalues    EBANDS =       -37.95774153
  atomic energy  EATOM  =       206.13311910
  ---------------------------------------------------
  free energy    TOTEN  =        -5.15152804 eV

  energy without entropy =       -5.14762284  energy(sigma->0) =       -5.14957544


--------------------------------------------------------------------------------------------------------




----------------------------------------- Iteration    1(  18)  ---------------------------------------


    POTLOK:  cpu time    0.05: real time    0.07
    SETDIJ:  cpu time    0.00: real time    0.00
     EDDAV:  cpu time    0.70: real time    0.71
       DOS:  cpu time    0.00: real time    0.00
    CHARGE:  cpu time    0.09: real time    0.09
    MIXING:  cpu time    0.00: real time    0.00
    --------------------------------------------
      LOOP:  cpu time    0.84: real time    0.89

 eigenvalue-minimisations  :   576
 total energy-change (2. order) : 0.1323883E-09  ( 0.7532195E-13)
 number of electron       7.9999998 magnetization 
 augmentation part       -0.5312429 magnetization 

 Broyden mixing:
  rms(total) = 0.11759E-07    rms(broyden)= 0.11750E-07
  rms(prec ) = 0.39633E-07
  weight for this iteration     100.00

 eigenvalues of (default mixing * dielectric matrix)
  average eigenvalue GAMMA=   2.0409
  3.9887  3.2217  3.0182  3.0182  2.5591  2.5591  2.1742  1.1010  1.0114  1.0114
  0.9704  0.9491  0.9491

 Free energy of the ion-electron system (eV)
  ---------------------------------------------------
  alpha Z        PSCENC =         1.01993287
  Ewald energy   TEWEN  =      -153.54629671
  -Hartree energ DENC   =       -34.38738201
  -exchange      EXHF   =         0.00000000
  -V(xc)+E(xc)   XCENC  =       -21.68543337
  PAW double counting   =        63.31502563      -28.03884620
  entropy T*S    EENTRO =        -0.00390520
  eigenvalues    EBANDS =       -37.95774215
  atomic energy  EATOM  =       206.13311910
  ---------------------------------------------------
  free energy    TOTEN  =        -5.15152804 eV

  energy without entropy =       -5.14762284  energy(sigma->0) =       -5.14957544


--------------------------------------------------------------------------------------------------------




----------------------------------------- Iteration    1(  19)  ---------------------------------------


    POTLOK:  cpu time    0.08: real time    0.08
    SETDIJ:  cpu time    0.00: real time    0.00
     EDDAV:  cpu time    0.71: real time    0.71
       DOS:  cpu time    0.00: real time    0.00
    --------------------------------------------
      LOOP:  cpu time    0.78: real time    0.79

 eigenvalue-minimisations  :   576
 total energy-change (2. order) :-0.7088374E-10  (-0.2144419E-12)
 number of electron       7.9999998 magnetization 
 augmentation part       -0.5312429 magnetization 

 Free energy of the ion-electron system (eV)
  ---------------------------------------------------
  alpha Z        PSCENC =         1.01993287
  Ewald energy   TEWEN  =      -153.54629671
  -Hartree energ DENC   =       -34.38738256
  -exchange      EXHF   =         0.00000000
  -V(xc)+E(xc)   XCENC  =       -21.68543330
  PAW double counting   =        63.31502538      -28.03884594
  entropy T*S    EENTRO =        -0.00390520
  eigenvalues    EBANDS =       -37.95774168
  atomic energy  EATOM  =       206.13311910
  ---------------------------------------------------
  free energy    TOTEN  =        -5.15152804 eV

  energy without entropy =       -5.14762284  energy(sigma->0) =       -5.14957544


--------------------------------------------------------------------------------------------------------




 average (electrostatic) potential at core
  the test charge radii are     0.9892
  (the norm of the test charge is              1.0000)
       1 -91.6886       2 -91.6886
 
 
 
 E-fermi :  -1.4410     XC(G=0):  -5.4096     alpha+bet : -3.6334


 k-point     1 :       0.0000    0.0000    0.0000
  band No.  band energies     occupation 
      1      -8.6158      2.00000
      2      -6.1160      2.00000
      3      -1.3250      0.01910
      4      -1.3250      0.01910
      5      -1.3250      0.01910
      6       0.1411      0.00000
      7       0.1411      0.00000
      8       0.1411      0.00000

 k-point     2 :       0.0833    0.0000    0.0000
  band No.  band energies     occupation 
      1      -8.5916      2.00000
      2      -6.1647      2.00000
      3      -1.3588      0.07207
      4      -1.3588      0.07207
      5      -1.3502      0.05152
      6       0.1777      0.00000
      7       0.1903      0.00000
      8       0.1903      0.00000

 k-point     3 :       0.1667    0.0000    0.0000
  band No.  band energies     occupation 
      1      -8.5212      2.00000
      2      -6.3003      2.00000
      3      -1.4417      1.01458
      4      -1.4417      1.01458
      5      -1.4292      0.76758
      6       0.3104      0.00000
      7       0.3134      0.00000
      8       0.3134      0.00000

 k-point     4 :       0.2500    0.0000    0.0000
  band No.  band energies     occupation 
      1      -8.4120      2.00000
      2      -6.4943      2.00000
      3      -1.5479      1.97256
      4      -1.5385      1.96024
      5      -1.5385      1.96024
      6       0.4605      0.00000
      7       0.4605      0.00000
      8       0.5519      0.00000

 k-point     5 :       0.3333    0.0000    0.0000
  band No.  band energies     occupation 
      1      -8.2801      2.00000
      2      -6.7068      2.00000
      3      -1.6679      1.99977
      4      -1.6220      1.99857
      5      -1.6220      1.99857
      6       0.5882      0.00000
      7       0.5882      0.00000
      8       0.8552      0.00000

 k-point     6 :       0.4167    0.0000    0.0000
  band No.  band energies     occupation 
      1      -8.1592      2.00000
      2      -6.8843      2.00000
      3      -1.7535      1.99999
      4      -1.6770      1.99984
      5      -1.6770      1.99984
      6       0.6708      0.00000
      7       0.6708      0.00000
      8       1.1230      0.00000

 k-point     7 :       0.5000    0.0000    0.0000
  band No.  band energies     occupation 
      1      -8.1064      2.00000
      2      -6.9574      2.00000
      3      -1.7841      2.00000
      4      -1.6961      1.99993
      5      -1.6961      1.99993
      6       0.6989      0.00000
      7       0.6989      0.00000
      8       1.2337      0.00000

 k-point     8 :       0.0833    0.0833    0.0000
  band No.  band energies     occupation 
      1      -8.5834      2.00000
      2      -6.1809      2.00000
      3      -1.4111      0.46482
      4      -1.4111      0.46482
      5      -1.2654      0.00178
      6       0.0699      0.00000
      7       0.2616      0.00000
      8       0.2616      0.00000

 k-point     9 :       0.1667    0.0833    0.0000
  band No.  band energies     occupation 
      1      -8.5280      2.00000
      2      -6.2873      2.00000
      3      -1.5159      1.90488
      4      -1.5036      1.84877
      5      -1.2394      0.00063
      6       0.0628      0.00000
      7       0.3992      0.00000
      8       0.4077      0.00000

 k-point    10 :       0.2500    0.0833    0.0000
  band No.  band energies     occupation 
      1      -8.4306      2.00000
      2      -6.4618      2.00000
      3      -1.6625      1.99972
      4      -1.6011      1.99670
      5      -1.2675      0.00194
      6       0.1714      0.00000
      7       0.5525      0.00000
      8       0.6134      0.00000

 k-point    11 :       0.3333    0.0833    0.0000
  band No.  band energies     occupation 
      1      -8.3035      2.00000
      2      -6.6693      2.00000
      3      -1.8133      2.00000
      4      -1.6791      1.99985
      5      -1.3267      0.02043
      6       0.3468      0.00000
      7       0.6786      0.00000
      8       0.8558      0.00000

 k-point    12 :       0.4167    0.0833    0.0000
  band No.  band energies     occupation 
      1      -8.1731      2.00000
      2      -6.8630      2.00000
      3      -1.9320      2.00000
      4      -1.7243      1.99998
      5      -1.3873      0.20927
      6       0.5115      0.00000
      7       0.7515      0.00000
      8       1.0931      0.00000

 k-point    13 :       0.5000    0.0833    0.0000
  band No.  band energies     occupation 
      1      -8.0899      2.00000
      2      -6.9778      2.00000
      3      -1.9966      2.00000
      4      -1.7310      1.99998
      5      -1.4278      0.74248
      6       0.6159      0.00000
      7       0.7629      0.00000
      8       1.2384      0.00000

 k-point    14 :      -0.4167    0.0833    0.0000
  band No.  band energies     occupation 
      1      -8.1087      2.00000
      2      -6.9524      2.00000
      3      -1.9979      2.00000
      4      -1.6988      1.99993
      5      -1.4376      0.93224
      6       0.6441      0.00000
      7       0.7150      0.00000
      8       1.2044      0.00000

 k-point    15 :      -0.3333    0.0833    0.0000
  band No.  band energies     occupation 
      1      -8.2152      2.00000
      2      -6.8025      2.00000
      3      -1.9361      2.00000
      4      -1.6323      1.99905
      5      -1.4163      0.54327
      6       0.5849      0.00000
      7       0.6147      0.00000
      8       1.0187      0.00000

 k-point    16 :      -0.2500    0.0833    0.0000
  band No.  band energies     occupation 
      1      -8.3487      2.00000
      2      -6.5979      2.00000
      3      -1.8198      2.00000
      4      -1.5414      1.96452
      5      -1.3750      0.13311
      6       0.4375      0.00000
      7       0.4761      0.00000
      8       0.7937      0.00000

 k-point    17 :      -0.1667    0.0833    0.0000
  band No.  band energies     occupation 
      1      -8.4677      2.00000
      2      -6.3971      2.00000
      3      -1.6658      1.99975
      4      -1.4449      1.07821
      5      -1.3370      0.03072
      6       0.2704      0.00000
      7       0.3283      0.00000
      8       0.5793      0.00000

 k-point    18 :      -0.0833    0.0833    0.0000
  band No.  band energies     occupation 
      1      -8.5519      2.00000
      2      -6.2423      2.00000
      3      -1.5000      1.82729
      4      -1.3730      0.12374
      5      -1.3278      0.02141
      6       0.1776      0.00000
      7       0.2173      0.00000
      8       0.3701      0.00000

 k-point    19 :       0.1667    0.1667    0.0000
  band No.  band energies     occupation 
      1      -8.4874      2.00000
      2      -6.3611      2.00000
      3      -1.6015      1.99675
      4      -1.6015      1.99675
      5      -1.1103      0.00000
      6      -0.0962      0.00000
      7       0.5506      0.00000
      8       0.5506      0.00000

 k-point    20 :       0.2500    0.1667    0.0000
  band No.  band energies     occupation 
      1      -8.4030      2.00000
      2      -6.5071      2.00000
      3      -1.7321      1.99998
      4      -1.7008      1.99994
      5      -1.0490      0.00000
      6      -0.1131      0.00000
      7       0.7168      0.00000
      8       0.7382      0.00000

 k-point    21 :       0.3333    0.1667    0.0000
  band No.  band energies     occupation 
      1      -8.2836      2.00000
      2      -6.6975      2.00000
      3      -1.8989      2.00000
      4      -1.7776      2.00000
      5      -1.0427      0.00000
      6       0.0089      0.00000
[...]
      8       1.3588      0.00000

 k-point    37 :       0.5000    0.3333    0.0000
  band No.  band energies     occupation 
      1      -7.8511      2.00000
      2      -7.2663      2.00000
      3      -2.2096      2.00000
      4      -2.0213      2.00000
      5      -0.6819      0.00000
      6      -0.2098      0.00000
      7       1.3662      0.00000
      8       1.4059      0.00000

 k-point    38 :      -0.4167    0.3333    0.0000
  band No.  band energies     occupation 
      1      -7.7736      2.00000
      2      -7.3534      2.00000
      3      -2.3201      2.00000
      4      -1.9835      2.00000
      5      -0.7212      0.00000
      6       0.0560      0.00000
      7       1.2911      0.00000
      8       1.3756      0.00000

 k-point    39 :      -0.3333    0.3333    0.0000
  band No.  band energies     occupation 
      1      -7.8465      2.00000
      2      -7.2709      2.00000
      3      -2.3600      2.00000
      4      -1.9078      2.00000
      5      -0.8039      0.00000
      6       0.2877      0.00000
      7       1.1382      0.00000
      8       1.3008      0.00000

 k-point    40 :       0.4167    0.4167    0.0000
  band No.  band energies     occupation 
      1      -7.8633      2.00000
      2      -7.2531      2.00000
      3      -2.0718      2.00000
      4      -2.0718      2.00000
      5      -0.6421      0.00000
      6      -0.5170      0.00000
      7       1.4819      0.00000
      8       1.4819      0.00000

 k-point    41 :       0.5000    0.4167    0.0000
  band No.  band energies     occupation 
      1      -7.7186      2.00000
      2      -7.4148      2.00000
      3      -2.1447      2.00000
      4      -2.0853      2.00000
      5      -0.6042      0.00000
      6      -0.4683      0.00000
      7       1.5193      0.00000
      8       1.5237      0.00000

 k-point    42 :      -0.4167    0.4167    0.0000
  band No.  band energies     occupation 
      1      -7.6442      2.00000
      2      -7.4926      2.00000
      3      -2.2507      2.00000
      4      -2.0544      2.00000
      5      -0.6332      0.00000
      6      -0.2354      0.00000
      7       1.4501      0.00000
      8       1.4728      0.00000

 k-point    43 :       0.5000    0.5000    0.0000
  band No.  band energies     occupation 
      1      -7.5698      2.00000
      2      -7.5698      2.00000
      3      -2.1077      2.00000
      4      -2.1077      2.00000
      5      -0.5783      0.00000
      6      -0.5783      0.00000
      7       1.5748      0.00000
      8       1.5748      0.00000

 k-point    44 :       0.2500    0.1667    0.0833
  band No.  band energies     occupation 
      1      -8.4583      2.00000
      2      -6.4131      2.00000
      3      -1.6925      1.99991
      4      -1.5521      1.97678
      5      -1.1796      0.00006
      6       0.0414      0.00000
      7       0.5031      0.00000
      8       0.6282      0.00000

 k-point    45 :       0.3333    0.1667    0.0833
  band No.  band energies     occupation 
      1      -8.3497      2.00000
      2      -6.5949      2.00000
      3      -1.8708      2.00000
      4      -1.6285      1.99889
      5      -1.1606      0.00003
      6       0.1378      0.00000
      7       0.6459      0.00000
      8       0.8380      0.00000

 k-point    46 :       0.4167    0.1667    0.0833
  band No.  band energies     occupation 
      1      -8.2174      2.00000
      2      -6.7970      2.00000
      3      -2.0188      2.00000
      4      -1.7074      1.99995
      5      -1.1738      0.00005
      6       0.3067      0.00000
      7       0.7728      0.00000
      8       1.0293      0.00000

 k-point    47 :       0.5000    0.1667    0.0833
  band No.  band energies     occupation 
      1      -8.0937      2.00000
      2      -6.9698      2.00000
      3      -2.1158      2.00000
      4      -1.7628      1.99999
      5      -1.1958      0.00011
      6       0.4626      0.00000
      7       0.8393      0.00000
      8       1.1934      0.00000

 k-point    48 :      -0.4167    0.1667    0.0833
  band No.  band energies     occupation 
      1      -8.0385      2.00000
      2      -7.0426      2.00000
      3      -2.1495      2.00000
      4      -1.7823      2.00000
      5      -1.2056      0.00016
      6       0.5260      0.00000
      7       0.8552      0.00000
      8       1.2645      0.00000

 k-point    49 :       0.3333    0.2500    0.0833
  band No.  band energies     occupation 
      1      -8.3064      2.00000
      2      -6.6620      2.00000
      3      -1.8896      2.00000
      4      -1.7667      2.00000
      5      -0.9643      0.00000
      6      -0.1327      0.00000
      7       0.8643      0.00000
      8       0.9324      0.00000

 k-point    50 :       0.4167    0.2500    0.0833
  band No.  band energies     occupation 
      1      -8.1790      2.00000
      2      -6.8498      2.00000
      3      -2.0505      2.00000
      4      -1.8353      2.00000
      5      -0.9190      0.00000
      6      -0.0222      0.00000
      7       0.9910      0.00000
      8       1.0952      0.00000

 k-point    51 :       0.5000    0.2500    0.0833
  band No.  band energies     occupation 
      1      -8.0448      2.00000
      2      -7.0311      2.00000
      3      -2.1821      2.00000
      4      -1.8809      2.00000
      5      -0.9147      0.00000
      6       0.1654      0.00000
      7       1.0478      0.00000
      8       1.2203      0.00000

 k-point    52 :      -0.4167    0.2500    0.0833
  band No.  band energies     occupation 
      1      -7.9568      2.00000
      2      -7.1419      2.00000
      3      -2.2602      2.00000
      4      -1.8857      2.00000
      5      -0.9309      0.00000
      6       0.3306      0.00000
      7       1.0347      0.00000
      8       1.2804      0.00000

 k-point    53 :      -0.3333    0.2500    0.0833
  band No.  band energies     occupation 
      1      -7.9820      2.00000
      2      -7.1108      2.00000
      3      -2.2692      2.00000
      4      -1.8481      2.00000
      5      -0.9542      0.00000
      6       0.3830      0.00000
      7       0.9803      0.00000
      8       1.2486      0.00000

 k-point    54 :      -0.2500    0.2500    0.0833
  band No.  band energies     occupation 
      1      -8.0975      2.00000
      2      -6.9617      2.00000
      3      -2.2033      2.00000
      4      -1.7767      2.00000
      5      -0.9908      0.00000
      6       0.3083      0.00000
      7       0.8965      0.00000
      8       1.1487      0.00000

 k-point    55 :      -0.1667    0.2500    0.0833
  band No.  band energies     occupation 
      1      -8.2331      2.00000
      2      -6.7726      2.00000
      3      -2.0660      2.00000
      4      -1.6918      1.99991
      5      -1.0591      0.00000
      6       0.1951      0.00000
      7       0.7721      0.00000
      8       1.0178      0.00000

 k-point    56 :       0.4167    0.3333    0.0833
  band No.  band energies     occupation 
      1      -8.1018      2.00000
      2      -6.9552      2.00000
      3      -2.0417      2.00000
      4      -1.9510      2.00000
      5      -0.7580      0.00000
      6      -0.2839      0.00000
      7       1.2009      0.00000
      8       1.2135      0.00000

 k-point    57 :       0.5000    0.3333    0.0833
  band No.  band energies     occupation 
      1      -7.9633      2.00000
      2      -7.1325      2.00000
      3      -2.1730      2.00000
      4      -1.9983      2.00000
      5      -0.7003      0.00000
      6      -0.1550      0.00000
      7       1.2623      0.00000
      8       1.3060      0.00000

 k-point    58 :      -0.4167    0.3333    0.0833
  band No.  band energies     occupation 
      1      -7.8480      2.00000
      2      -7.2694      2.00000
      3      -2.2847      2.00000
      4      -1.9990      2.00000
      5      -0.7019      0.00000
      6       0.0589      0.00000
      7       1.2378      0.00000
      8       1.3320      0.00000

 k-point    59 :      -0.3333    0.3333    0.0833
  band No.  band energies     occupation 
      1      -7.8465      2.00000
      2      -7.2709      2.00000
      3      -2.3382      2.00000
      4      -1.9529      2.00000
      5      -0.7467      0.00000
      6       0.2395      0.00000
      7       1.1518      0.00000
      8       1.2944      0.00000

 k-point    60 :      -0.2500    0.3333    0.0833
  band No.  band energies     occupation 
      1      -7.9598      2.00000
      2      -7.1366      2.00000
      3      -2.3128      2.00000
      4      -1.8714      2.00000
      5      -0.8394      0.00000
      6       0.3115      0.00000
      7       1.0341      0.00000
      8       1.2252      0.00000

 k-point    61 :       0.5000    0.4167    0.0833
  band No.  band energies     occupation 
      1      -7.8527      2.00000
      2      -7.2648      2.00000
      3      -2.1281      2.00000
      4      -2.0799      2.00000
      5      -0.6018      0.00000
      6      -0.3994      0.00000
      7       1.4245      0.00000
      8       1.4383      0.00000

 k-point    62 :      -0.4167    0.4167    0.0833
  band No.  band energies     occupation 
      1      -7.7167      2.00000
      2      -7.4156      2.00000
      3      -2.2311      2.00000
      4      -2.0900      2.00000
      5      -0.5601      0.00000
      6      -0.2420      0.00000
      7       1.4082      0.00000
      8       1.4328      0.00000

 k-point    63 :      -0.3333    0.4167    0.0833
  band No.  band energies     occupation 
      1      -7.7137      2.00000
      2      -7.4182      2.00000
      3      -2.3193      2.00000
      4      -2.0408      2.00000
      5      -0.6159      0.00000
      6       0.0163      0.00000
      7       1.3059      0.00000
      8       1.3673      0.00000

 k-point    64 :      -0.4167    0.5000    0.0833
  band No.  band energies     occupation 
      1      -7.5693      2.00000
      2      -7.5693      2.00000
      3      -2.1409      2.00000
      4      -2.1409      2.00000
      5      -0.4938      0.00000
      6      -0.4938      0.00000
      7       1.5152      0.00000
      8       1.5152      0.00000

 k-point    65 :       0.5000    0.3333    0.1667
  band No.  band energies     occupation 
      1      -8.0469      2.00000
      2      -7.0273      2.00000
      3      -2.1907      2.00000
      4      -1.9087      2.00000
      5      -0.7926      0.00000
      6       0.0297      0.00000
      7       1.1107      0.00000
      8       1.1919      0.00000

 k-point    66 :      -0.4167    0.3333    0.1667
  band No.  band energies     occupation 
      1      -7.9133      2.00000
      2      -7.1927      2.00000
      3      -2.2807      2.00000
      4      -1.9753      2.00000
      5      -0.7115      0.00000
      6       0.1315      0.00000
      7       1.1612      0.00000
      8       1.2591      0.00000

 k-point    67 :      -0.3333    0.3333    0.1667
  band No.  band energies     occupation 
      1      -7.8465      2.00000
      2      -7.2709      2.00000
      3      -2.3115      2.00000
      4      -2.0013      2.00000
      5      -0.6872      0.00000
      6       0.1876      0.00000
      7       1.1657      0.00000
      8       1.2871      0.00000

 k-point    68 :      -0.4167    0.4167    0.1667
  band No.  band energies     occupation 
      1      -7.8220      2.00000
      2      -7.2988      2.00000
      3      -2.2372      2.00000
      4      -2.0869      2.00000
      5      -0.5347      0.00000
      6      -0.1363      0.00000
      7       1.3179      0.00000
      8       1.3261      0.00000

 k-point    69 :      -0.3333    0.4167    0.1667
  band No.  band energies     occupation 
      1      -7.7149      2.00000
      2      -7.4165      2.00000
      3      -2.2884      2.00000
      4      -2.1187      2.00000
      5      -0.4650      0.00000
      6      -0.0409      0.00000
      7       1.2864      0.00000
      8       1.3208      0.00000

 k-point    70 :      -0.2500    0.4167    0.1667
  band No.  band energies     occupation 
      1      -7.7743      2.00000
      2      -7.3516      2.00000
      3      -2.3142      2.00000
      4      -2.0696      2.00000
      5      -0.5395      0.00000
      6       0.0708      0.00000
      7       1.2359      0.00000
      8       1.2877      0.00000

 k-point    71 :      -0.3333    0.5000    0.1667
  band No.  band energies     occupation 
      1      -7.5685      2.00000
      2      -7.5685      2.00000
      3      -2.2009      2.00000
      4      -2.2009      2.00000
      5      -0.3170      0.00000
      6      -0.3170      0.00000
      7       1.3809      0.00000
      8       1.3809      0.00000

 k-point    72 :      -0.2500    0.5000    0.2500
  band No.  band energies     occupation 
      1      -7.5681      2.00000
      2      -7.5681      2.00000
      3      -2.2284      2.00000
      4      -2.2284      2.00000
      5      -0.2214      0.00000
      6      -0.2214      0.00000
      7       1.3036      0.00000
      8       1.3036      0.00000


--------------------------------------------------------------------------------------------------------


 soft charge-density along one line, spin component           1
         0         1         2         3         4         5         6         7         8         9
 total charge-density along one line
 
 pseudopotential strength for first ion, spin component:           1
 19.336   0.006   0.000   0.000   0.000  -0.000  -0.000  -0.000
  0.006   0.006  -0.000  -0.000  -0.000   0.000   0.000   0.000
  0.000  -0.000   4.296  -0.000  -0.000   0.001   0.000   0.000
  0.000  -0.000  -0.000   4.296  -0.000   0.000   0.001   0.000
  0.000  -0.000  -0.000  -0.000   4.296   0.000   0.000   0.001
 -0.000   0.000   0.001   0.000   0.000   0.004  -0.000  -0.000
 -0.000   0.000   0.000   0.001   0.000  -0.000   0.004  -0.000
 -0.000   0.000   0.000   0.000   0.001  -0.000  -0.000   0.004
 total augmentation occupancy for first ion, spin component:           1
  1.964   0.149   0.000   0.000   0.000  -0.000   0.000   0.000
  0.149   0.058   0.000   0.000  -0.000   0.000   0.000   0.000
  0.000   0.000   0.605   0.000  -0.000  -0.074   0.000   0.000
  0.000   0.000   0.000   0.605   0.000   0.000  -0.074   0.000
  0.000   0.000   0.000   0.000   0.605   0.000   0.000  -0.074
  0.000   0.000  -0.074   0.000   0.000   0.013   0.000   0.000
  0.000   0.000   0.000  -0.074   0.000   0.000   0.013  -0.000
 -0.000   0.000   0.000   0.000  -0.074   0.000   0.000   0.013


------------------------ aborting loop because EDIFF is reached ----------------------------------------


    CHARGE:  cpu time    0.09: real time    0.09
    FORLOC:  cpu time    0.00: real time    0.00
    FORNL :  cpu time    0.10: real time    0.10
    STRESS:  cpu time    0.88: real time    0.88
    FORCOR:  cpu time    0.05: real time    0.05
    FORHAR:  cpu time    0.02: real time    0.02
    MIXING:  cpu time    0.00: real time    0.00
    OFIELD:  cpu time    0.00: real time    0.00

  FORCE on cell =-STRESS in cart. coord.  units (eV):
  Direction    XX          YY          ZZ          XY          YZ          ZX
  --------------------------------------------------------------------------------------
  Alpha Z     1.01993     1.01993     1.01993
  Ewald     -51.18212   -51.18212   -51.18212     0.00000    -0.00000     0.00000
  Hartree    11.46246    11.46246    11.46246     0.00000     0.00000     0.00000
  E(xc)     -21.74637   -21.74637   -21.74637    -0.00000    -0.00000    -0.00000
  Local     -53.10304   -53.10304   -53.10304     0.00001     0.00001     0.00001
  n-local    78.64886    80.16992    74.29204     1.17845    -0.32938    -0.17107
  augment   -13.59531   -13.59531   -13.59531    -0.00001    -0.00001    -0.00001
  Kinetic    46.30780    48.72689    37.76194     2.47133    -0.93578     0.30132
  Fock        0.00000     0.00000     0.00000     0.00000     0.00000     0.00000
  -------------------------------------------------------------------------------------
  Total      -5.17531    -5.17531    -5.17531     0.00000     0.00000     0.00000
  in kB     -62.80653   -62.80653   -62.80653     0.00000     0.00000     0.00000
  external pressure =      -62.81 kB  Pullay stress =        0.00 kB


 VOLUME and BASIS-vectors are now :
 -----------------------------------------------------------------------------
  energy-cutoff  :      600.00
  volume of cell :      132.02
      direct lattice vectors                 reciprocal lattice vectors
     0.000000000  4.041451884  4.041451884    -0.123717915  0.123717915  0.123717915
     4.041451884  0.000000000  4.041451884     0.123717915 -0.123717915  0.123717915
     4.041451884  4.041451884  0.000000000     0.123717915  0.123717915 -0.123717915

  length of vectors
     5.715476066  5.715476066  5.715476066     0.214285714  0.214285714  0.214285714


 FORCES acting on ions
    electron-ion (+dipol)            ewald-force                    non-local-force                 convergence-correction
 -----------------------------------------------------------------------------------------------
   0.717E-07 0.717E-07 0.677E-07   0.600E-15 -.830E-15 -.165E-14   0.486E-16 0.625E-16 0.625E-16   -.244E-13 -.254E-13 -.302E-13
   -.717E-07 -.717E-07 -.677E-07   -.623E-15 0.798E-15 0.161E-14   -.486E-16 -.625E-16 -.729E-16   0.334E-13 0.305E-13 0.238E-13
 -----------------------------------------------------------------------------------------------
   0.104E-12 0.193E-13 -.234E-14   -.224E-16 -.321E-16 -.390E-16   0.000E+00 0.000E+00 -.104E-16   0.901E-14 0.502E-14 -.640E-14
 
 
 POSITION                                       TOTAL-FORCE (eV/Angst)
 -----------------------------------------------------------------------------------
      0.00000      0.00000      0.00000         0.000000      0.000000     -0.000000
      2.02073      2.02073      2.02073        -0.000000     -0.000000      0.000000
 -----------------------------------------------------------------------------------
    total drift:                                0.000000      0.000000     -0.000000


--------------------------------------------------------------------------------------------------------



  FREE ENERGIE OF THE ION-ELECTRON SYSTEM (eV)
  ---------------------------------------------------
  free  energy   TOTEN  =        -5.15152804 eV

  energy  without entropy=       -5.14762284  energy(sigma->0) =       -5.14957544
 


--------------------------------------------------------------------------------------------------------


    POTLOK:  cpu time    0.06: real time    0.06


--------------------------------------------------------------------------------------------------------


 writing wavefunctions
     LOOP+:  cpu time   24.39: real time   25.14
    4ORBIT:  cpu time    0.00: real time    0.00

 total amount of memory used by VASP on root node    71007. kBytes
========================================================================

   base      :      30000. kBytes
   nonl-proj :      20787. kBytes
   fftplans  :       3408. kBytes
   grid      :       6448. kBytes
   one-center:          6. kBytes
   wavefun   :      10358. kBytes
 
  
  
 General timing and accounting informations for this job:
 ========================================================
  
                  Total CPU time used (sec):       25.280
                            User time (sec):       24.632
                          System time (sec):        0.648
                         Elapsed time (sec):       26.271
  
                   Maximum memory used (kb):       88808.
                   Average memory used (kb):           0.
  
                          Minor page faults:        32273
                          Major page faults:            7
                 Voluntary context switches:          709
