 vasp.5.3.5 31Mar14 (build Jun 01 2017 17:55:53) complex                        
  
 executed on             LinuxIFC date 2020.11.10  15:18:00
 running on    4 total cores
 distrk:  each k-point on    4 cores,    1 groups
 distr:  one band on NCORES_PER_BAND=   1 cores,    4 groups


--------------------------------------------------------------------------------------------------------


 INCAR:
 POTCAR:   PAW_PBE Si 05Jan2001                   
 POTCAR:   PAW_PBE Si 05Jan2001                   
   VRHFIN =Si: s2p2                                                             
   LEXCH  = PE                                                                  
   EATOM  =   103.0669 eV,    7.5752 Ry                                         
                                                                                
   TITEL  = PAW_PBE Si 05Jan2001                                                
   LULTRA =        F    use ultrasoft PP ?                                      
   IUNSCR =        1    unscreen: 0-lin 1-nonlin 2-no                           
   RPACOR =    1.500    partial core radius                                     
   POMASS =   28.085; ZVAL   =    4.000    mass and valenz                      
   RCORE  =    1.900    outmost cutoff radius                                   
   RWIGS  =    2.480; RWIGS  =    1.312    wigner-seitz radius (au A)           
   ENMAX  =  245.345; ENMIN  =  184.009 eV                                      
   ICORE  =        2    local potential                                         
   LCOR   =        T    correct aug charges                                     
   LPAW   =        T    paw PP                                                  
   EAUG   =  322.069                                                            
   DEXC   =    -.007                                                            
   RMAX   =    2.944    core radius for proj-oper                               
   RAUG   =    1.300    factor for augmentation sphere                          
   RDEP   =    1.993    radius for radial grids                                 
   QCUT   =   -4.246; QGAM   =    8.493    optimization parameters              
                                                                                
   Description                                                                  
     l     E      TYP  RCUT    TYP  RCUT                                        
     0   .000     23  1.900                                                     
     0   .000     23  1.900                                                     
     1   .000     23  1.900                                                     
     1   .000     23  1.900                                                     
     2   .000      7  1.900                                                     
  local pseudopotential read in
  partial core-charges read in
  atomic valenz-charges read in
  non local Contribution for L=           0  read in
    real space projection operators read in
  non local Contribution for L=           0  read in
    real space projection operators read in
  non local Contribution for L=           1  read in
    real space projection operators read in
  non local Contribution for L=           1  read in
    real space projection operators read in
    PAW grid and wavefunctions read in
 
   number of l-projection  operators is LMAX  =           4
   number of lm-projection operators is LMMAX =           8
 
 PAW_PBE Si 05Jan2001                   :
 energy of atom  1       EATOM= -103.0669
 kinetic energy error for atom=    0.0003 (will be added to EATOM!!)
 
 
 POSCAR: Si
  positions in direct lattice
  velocities in cartesian coordinates
  No initial velocities read in
 exchange correlation table for  LEXCH =        8
   RHO(1)=    0.500       N(1)  =     2000
   RHO(2)=  100.500       N(2)  =     4000
 


--------------------------------------------------------------------------------------------------------


 ion  position               nearest neighbor table
   1  0.000  0.000  0.000-   2 2.50   2 2.50   2 2.50   2 2.50
   2  0.250  0.250  0.250-   1 2.50   1 2.50   1 2.50   1 2.50
 
  LATTYP: Found a face centered cubic cell.
 ALAT       =     5.7735026919
  
  Lattice vectors:
  
 A1 = (   0.0000000000,   2.8867513459,   2.8867513459)
 A2 = (   2.8867513459,   0.0000000000,   2.8867513459)
 A3 = (   2.8867513459,   2.8867513459,   0.0000000000)


Analysis of symmetry for initial positions (statically):
=====================================================================
 Subroutine PRICEL returns:
 Original cell was already a primitive cell.
 

 Routine SETGRP: Setting up the symmetry group for a 
 face centered cubic supercell.


 Subroutine GETGRP returns: Found 48 space group operations
 (whereof 24 operations were pure point group operations)
 out of a pool of 48 trial point group operations.


The static configuration has the point symmetry T_d .
 The point group associated with its full space group is O_h .


Analysis of symmetry for dynamics (positions and initial velocities):
=====================================================================
 Subroutine PRICEL returns:
 Original cell was already a primitive cell.
 

 Routine SETGRP: Setting up the symmetry group for a 
 face centered cubic supercell.


 Subroutine GETGRP returns: Found 48 space group operations
 (whereof 24 operations were pure point group operations)
 out of a pool of 48 trial point group operations.


The dynamic configuration has the point symmetry T_d .
 The point group associated with its full space group is O_h .


Analysis of constrained symmetry for selective dynamics:
=====================================================================
 Subroutine PRICEL returns:
 Original cell was already a primitive cell.
 

 Routine SETGRP: Setting up the symmetry group for a 
 face centered cubic supercell.


 Subroutine GETGRP returns: Found 48 space group operations
 (whereof 24 operations were pure point group operations)
 out of a pool of 48 trial point group operations.


The constrained configuration has the point symmetry T_d .
 The point group associated with its full space group is O_h .
 
 
 KPOINTS: Gamma centered Monkhorst-Pack           

Automatic generation of k-mesh.
Space group operators:
 irot       det(A)        alpha          n_x          n_y          n_z        tau_x        tau_y        tau_z
    1     1.000000     0.000000     1.000000     0.000000     0.000000     0.000000     0.000000     0.000000
    2     1.000000   120.000000    -0.577350    -0.577350    -0.577350     0.000000     0.000000     0.000000
    3     1.000000   120.000000     0.577350     0.577350     0.577350     0.000000     0.000000     0.000000
    4    -1.000000    90.000000     0.000000     0.000000    -1.000000     0.000000     0.000000     0.000000
    5    -1.000000   180.000000     0.000000     0.707107     0.707107     0.000000     0.000000     0.000000
    6    -1.000000    90.000000     0.000000     1.000000     0.000000     0.000000     0.000000     0.000000
    7     1.000000   180.000000     0.000000     0.000000     1.000000     0.000000     0.000000     0.000000
    8     1.000000   120.000000    -0.577350     0.577350     0.577350     0.000000     0.000000     0.000000
    9     1.000000   120.000000    -0.577350     0.577350    -0.577350     0.000000     0.000000     0.000000
   10    -1.000000    90.000000     0.000000     0.000000     1.000000     0.000000     0.000000     0.000000
   11    -1.000000    90.000000    -1.000000     0.000000     0.000000     0.000000     0.000000     0.000000
   12    -1.000000   180.000000     0.707107     0.000000     0.707107     0.000000     0.000000     0.000000
   13     1.000000   120.000000     0.577350    -0.577350     0.577350     0.000000     0.000000     0.000000
   14     1.000000   120.000000    -0.577350    -0.577350     0.577350     0.000000     0.000000     0.000000
   15     1.000000   180.000000     1.000000     0.000000     0.000000     0.000000     0.000000     0.000000
   16    -1.000000    90.000000     0.000000    -1.000000     0.000000     0.000000     0.000000     0.000000
   17    -1.000000   180.000000     0.707107     0.707107     0.000000     0.000000     0.000000     0.000000
   18    -1.000000    90.000000     1.000000     0.000000     0.000000     0.000000     0.000000     0.000000
   19     1.000000   120.000000     0.577350    -0.577350    -0.577350     0.000000     0.000000     0.000000
   20     1.000000   180.000000     0.000000     1.000000     0.000000     0.000000     0.000000     0.000000
   21     1.000000   120.000000     0.577350     0.577350    -0.577350     0.000000     0.000000     0.000000
   22    -1.000000   180.000000     0.000000    -0.707107     0.707107     0.000000     0.000000     0.000000
   23    -1.000000   180.000000     0.707107    -0.707107     0.000000     0.000000     0.000000     0.000000
   24    -1.000000   180.000000     0.707107     0.000000    -0.707107     0.000000     0.000000     0.000000
   25    -1.000000     0.000000     1.000000     0.000000     0.000000     0.250000     0.250000     0.250000
   26    -1.000000   120.000000    -0.577350    -0.577350    -0.577350     0.250000     0.250000     0.250000
   27    -1.000000   120.000000     0.577350     0.577350     0.577350     0.250000     0.250000     0.250000
   28     1.000000    90.000000     0.000000     0.000000    -1.000000     0.250000     0.250000     0.250000
   29     1.000000   180.000000     0.000000     0.707107     0.707107     0.250000     0.250000     0.250000
   30     1.000000    90.000000     0.000000     1.000000     0.000000     0.250000     0.250000     0.250000
   31    -1.000000   180.000000     0.000000     0.000000     1.000000     0.250000     0.250000     0.250000
   32    -1.000000   120.000000    -0.577350     0.577350     0.577350     0.250000     0.250000     0.250000
   33    -1.000000   120.000000    -0.577350     0.577350    -0.577350     0.250000     0.250000     0.250000
   34     1.000000    90.000000     0.000000     0.000000     1.000000     0.250000     0.250000     0.250000
   35     1.000000    90.000000    -1.000000     0.000000     0.000000     0.250000     0.250000     0.250000
   36     1.000000   180.000000     0.707107     0.000000     0.707107     0.250000     0.250000     0.250000
   37    -1.000000   120.000000     0.577350    -0.577350     0.577350     0.250000     0.250000     0.250000
   38    -1.000000   120.000000    -0.577350    -0.577350     0.577350     0.250000     0.250000     0.250000
   39    -1.000000   180.000000     1.000000     0.000000     0.000000     0.250000     0.250000     0.250000
   40     1.000000    90.000000     0.000000    -1.000000     0.000000     0.250000     0.250000     0.250000
   41     1.000000   180.000000     0.707107     0.707107     0.000000     0.250000     0.250000     0.250000
   42     1.000000    90.000000     1.000000     0.000000     0.000000     0.250000     0.250000     0.250000
   43    -1.000000   120.000000     0.577350    -0.577350    -0.577350     0.250000     0.250000     0.250000
   44    -1.000000   180.000000     0.000000     1.000000     0.000000     0.250000     0.250000     0.250000
   45    -1.000000   120.000000     0.577350     0.577350    -0.577350     0.250000     0.250000     0.250000
   46     1.000000   180.000000     0.000000    -0.707107     0.707107     0.250000     0.250000     0.250000
   47     1.000000   180.000000     0.707107    -0.707107     0.000000     0.250000     0.250000     0.250000
   48     1.000000   180.000000     0.707107     0.000000    -0.707107     0.250000     0.250000     0.250000
 
 Subroutine IBZKPT returns following result:
 ===========================================
 
 Found     72 irreducible k-points:
 
 Following reciprocal coordinates:
            Coordinates               Weight
  0.000000  0.000000  0.000000      1.000000
  0.083333  0.000000  0.000000      8.000000
  0.166667  0.000000  0.000000      8.000000
  0.250000  0.000000  0.000000      8.000000
  0.333333  0.000000  0.000000      8.000000
  0.416667  0.000000  0.000000      8.000000
  0.500000  0.000000  0.000000      4.000000
  0.083333  0.083333  0.000000      6.000000
  0.166667  0.083333  0.000000     24.000000
  0.250000  0.083333  0.000000     24.000000
  0.333333  0.083333  0.000000     24.000000
  0.416667  0.083333  0.000000     24.000000
  0.500000  0.083333  0.000000     24.000000
 -0.416667  0.083333  0.000000     24.000000
 -0.333333  0.083333  0.000000     24.000000
 -0.250000  0.083333  0.000000     24.000000
 -0.166667  0.083333  0.000000     24.000000
 -0.083333  0.083333  0.000000     12.000000
  0.166667  0.166667  0.000000      6.000000
  0.250000  0.166667  0.000000     24.000000
  0.333333  0.166667  0.000000     24.000000
  0.416667  0.166667  0.000000     24.000000
  0.500000  0.166667  0.000000     24.000000
 -0.416667  0.166667  0.000000     24.000000
 -0.333333  0.166667  0.000000     24.000000
 -0.250000  0.166667  0.000000     24.000000
 -0.166667  0.166667  0.000000     12.000000
  0.250000  0.250000  0.000000      6.000000
  0.333333  0.250000  0.000000     24.000000
  0.416667  0.250000  0.000000     24.000000
  0.500000  0.250000  0.000000     24.000000
 -0.416667  0.250000  0.000000     24.000000
 -0.333333  0.250000  0.000000     24.000000
 -0.250000  0.250000  0.000000     12.000000
  0.333333  0.333333  0.000000      6.000000
  0.416667  0.333333  0.000000     24.000000
  0.500000  0.333333  0.000000     24.000000
 -0.416667  0.333333  0.000000     24.000000
 -0.333333  0.333333  0.000000     12.000000
  0.416667  0.416667  0.000000      6.000000
  0.500000  0.416667  0.000000     24.000000
 -0.416667  0.416667  0.000000     12.000000
  0.500000  0.500000  0.000000      3.000000
  0.250000  0.166667  0.083333     24.000000
  0.333333  0.166667  0.083333     48.000000
  0.416667  0.166667  0.083333     48.000000
  0.500000  0.166667  0.083333     48.000000
 -0.416667  0.166667  0.083333     24.000000
  0.333333  0.250000  0.083333     24.000000
  0.416667  0.250000  0.083333     48.000000
  0.500000  0.250000  0.083333     48.000000
 -0.416667  0.250000  0.083333     48.000000
 -0.333333  0.250000  0.083333     48.000000
 -0.250000  0.250000  0.083333     48.000000
 -0.166667  0.250000  0.083333     24.000000
  0.416667  0.333333  0.083333     24.000000
  0.500000  0.333333  0.083333     48.000000
 -0.416667  0.333333  0.083333     48.000000
 -0.333333  0.333333  0.083333     48.000000
 -0.250000  0.333333  0.083333     24.000000
  0.500000  0.416667  0.083333     24.000000
 -0.416667  0.416667  0.083333     48.000000
 -0.333333  0.416667  0.083333     24.000000
 -0.416667  0.500000  0.083333     12.000000
  0.500000  0.333333  0.166667     24.000000
 -0.416667  0.333333  0.166667     48.000000
 -0.333333  0.333333  0.166667     24.000000
 -0.416667  0.416667  0.166667     24.000000
 -0.333333  0.416667  0.166667     48.000000
 -0.250000  0.416667  0.166667     24.000000
 -0.333333  0.500000  0.166667     12.000000
 -0.250000  0.500000  0.250000      6.000000
 
 Following cartesian coordinates:
            Coordinates               Weight
  0.000000  0.000000  0.000000      1.000000
 -0.083333  0.083333  0.083333      8.000000
 -0.166667  0.166667  0.166667      8.000000
 -0.250000  0.250000  0.250000      8.000000
 -0.333333  0.333333  0.333333      8.000000
 -0.416667  0.416667  0.416667      8.000000
 -0.500000  0.500000  0.500000      4.000000
  0.000000  0.000000  0.166667      6.000000
 -0.083333  0.083333  0.250000     24.000000
 -0.166667  0.166667  0.333333     24.000000
 -0.250000  0.250000  0.416667     24.000000
 -0.333333  0.333333  0.500000     24.000000
 -0.416667  0.416667  0.583333     24.000000
  0.500000 -0.500000 -0.333333     24.000000
  0.416667 -0.416667 -0.250000     24.000000
  0.333333 -0.333333 -0.166667     24.000000
  0.250000 -0.250000 -0.083333     24.000000
  0.166667 -0.166667  0.000000     12.000000
  0.000000  0.000000  0.333333      6.000000
 -0.083333  0.083333  0.416667     24.000000
 -0.166667  0.166667  0.500000     24.000000
 -0.250000  0.250000  0.583333     24.000000
 -0.333333  0.333333  0.666667     24.000000
  0.583333 -0.583333 -0.250000     24.000000
  0.500000 -0.500000 -0.166667     24.000000
  0.416667 -0.416667 -0.083333     24.000000
  0.333333 -0.333333  0.000000     12.000000
  0.000000  0.000000  0.500000      6.000000
 -0.083333  0.083333  0.583333     24.000000
 -0.166667  0.166667  0.666667     24.000000
 -0.250000  0.250000  0.750000     24.000000
  0.666667 -0.666667 -0.166667     24.000000
  0.583333 -0.583333 -0.083333     24.000000
  0.500000 -0.500000  0.000000     12.000000
  0.000000  0.000000  0.666667      6.000000
 -0.083333  0.083333  0.750000     24.000000
 -0.166667  0.166667  0.833333     24.000000
  0.750000 -0.750000 -0.083333     24.000000
  0.666667 -0.666667  0.000000     12.000000
  0.000000  0.000000  0.833333      6.000000
 -0.083333  0.083333  0.916667     24.000000
  0.833333 -0.833333  0.000000     12.000000
  0.000000  0.000000  1.000000      3.000000
  0.000000  0.166667  0.333333     24.000000
 -0.083333  0.250000  0.416667     48.000000
 -0.166667  0.333333  0.500000     48.000000
 -0.250000  0.416667  0.583333     48.000000
  0.666667 -0.500000 -0.333333     24.000000
  0.000000  0.166667  0.500000     24.000000
 -0.083333  0.250000  0.583333     48.000000
 -0.166667  0.333333  0.666667     48.000000
  0.750000 -0.583333 -0.250000     48.000000
  0.666667 -0.500000 -0.166667     48.000000
  0.583333 -0.416667 -0.083333     48.000000
  0.500000 -0.333333  0.000000     24.000000
 -0.000000  0.166667  0.666667     24.000000
 -0.083333  0.250000  0.750000     48.000000
  0.833333 -0.666667 -0.166667     48.000000
  0.750000 -0.583333 -0.083333     48.000000
  0.666667 -0.500000 -0.000000     24.000000
  0.000000  0.166667  0.833333     24.000000
  0.916667 -0.750000 -0.083333     48.000000
  0.833333 -0.666667  0.000000     24.000000
  1.000000 -0.833333  0.000000     12.000000
  0.000000  0.333333  0.666667     24.000000
  0.916667 -0.583333 -0.250000     48.000000
  0.833333 -0.500000 -0.166667     24.000000
  1.000000 -0.666667 -0.166667     24.000000
  0.916667 -0.583333 -0.083333     48.000000
  0.833333 -0.500000  0.000000     24.000000
  1.000000 -0.666667  0.000000     12.000000
  1.000000 -0.500000  0.000000      6.000000
 


--------------------------------------------------------------------------------------------------------




 Dimension of arrays:
   k-points           NKPTS =     72   k-points in BZ     NKDIM =     72   number of bands    NBANDS=      8
   number of dos      NEDOS =    301   number of ions     NIONS =      2
   non local maximal  LDIM  =      4   non local SUM 2l+1 LMDIM =      8
   total plane-waves  NPLWV =  13824
   max r-space proj   IRMAX =      1   max aug-charges    IRDMAX=   9805
   dimension x,y,z NGX =    24 NGY =   24 NGZ =   24
   dimension x,y,z NGXF=    48 NGYF=   48 NGZF=   48
   support grid    NGXF=    48 NGYF=   48 NGZF=   48
   ions per type =               2
 NGX,Y,Z   is equivalent  to a cutoff of   9.77,  9.77,  9.77 a.u.
 NGXF,Y,Z  is equivalent  to a cutoff of  19.55, 19.55, 19.55 a.u.


 I would recommend the setting:
   dimension x,y,z NGX =    24 NGY =   24 NGZ =   24
 SYSTEM =  Si
 POSCAR =  Si

 Startparameter for this run:
   NWRITE =      2    write-flag & timer
   PREC   = normal    normal or accurate (medium, high low for compatibility)
   ISTART =      0    job   : 0-new  1-cont  2-samecut
   ICHARG =      2    charge: 1-file 2-atom 10-const
   ISPIN  =      1    spin polarized calculation?
   LNONCOLLINEAR =      F non collinear calculations
   LSORBIT =      F    spin-orbit coupling
   INIWAV =      1    electr: 0-lowe 1-rand  2-diag
   LASPH  =      F    aspherical Exc in radial PAW
   METAGGA=      F    non-selfconsistent MetaGGA calc.

 Electronic Relaxation 1
   ENCUT  =  600.0 eV  44.10 Ry    6.64 a.u.   8.15  8.15  8.15*2*pi/ulx,y,z
   ENINI  =  600.0     initial cutoff
   ENAUG  = 1200.0 eV  augmentation charge cutoff
   NELM   =    500;   NELMIN=  2; NELMDL= -5     # of ELM steps 
   EDIFF  = 0.1E-09   stopping-criterion for ELM
   LREAL  =      F    real-space projection
   NLSPLINE    = F    spline interpolate recip. space projectors
   LCOMPAT=      F    compatible to vasp.4.4
   GGA_COMPAT  = T    GGA compatible to vasp.4.4-vasp.4.6
   LMAXPAW     = -100 max onsite density
   LMAXMIX     =    2 max onsite mixed and CHGCAR
   VOSKOWN=      0    Vosko Wilk Nusair interpolation
   ROPT   =    0.00000
 Ionic relaxation
   EDIFFG = 0.1E-08   stopping-criterion for IOM
   NSW    =      0    number of steps for IOM
   NBLOCK =      1;   KBLOCK =      1    inner block; outer block 
   IBRION =     -1    ionic relax: 0-MD 1-quasi-New 2-CG
   NFREE  =      0    steps in history (QN), initial steepest desc. (CG)
   ISIF   =      2    stress and relaxation
   IWAVPR =     10    prediction:  0-non 1-charg 2-wave 3-comb
   ISYM   =      2    0-nonsym 1-usesym 2-fastsym
   LCORR  =      T    Harris-Foulkes like correction to forces

   POTIM  = 0.5000    time-step for ionic-motion
   TEIN   =    0.0    initial temperature
   TEBEG  =    0.0;   TEEND  =   0.0 temperature during run
   SMASS  =  -3.00    Nose mass-parameter (am)
   estimated Nose-frequenzy (Omega)   =  0.10E-29 period in steps =****** mass=  -0.381E-27a.u.
   SCALEE = 1.0000    scale energy and forces
   NPACO  =    256;   APACO  = 16.0  distance and # of slots for P.C.
   PSTRESS=    0.0 pullay stress

  Mass of Ions in am
   POMASS =  28.09
  Ionic Valenz
   ZVAL   =   4.00
  Atomic Wigner-Seitz radii
   RWIGS  =  -1.00
  virtual crystal weights 
   VCA    =   1.00
   NELECT =       8.0000    total number of electrons
   NUPDOWN=      -1.0000    fix difference up-down

 DOS related values:
   EMIN   =  10.00;   EMAX   =-10.00  energy-range for DOS
   EFERMI =   0.00
   ISMEAR =    -1;   SIGMA  =   0.03  broadening in eV -4-tet -1-fermi 0-gaus

 Electronic relaxation 2 (details)
   IALGO  =     38    algorithm
   LDIAG  =      T    sub-space diagonalisation (order eigenvalues)
   LSUBROT=      F    optimize rotation matrix (better conditioning)
   TURBO    =      0    0=normal 1=particle mesh
   IRESTART =      0    0=no restart 2=restart with 2 vectors
   NREBOOT  =      0    no. of reboots
   NMIN     =      0    reboot dimension
   EREF     =   0.00    reference energy to select bands
   IMIX   =      4    mixing-type and parameters
     AMIX     =   0.40;   BMIX     =  1.00
     AMIX_MAG =   1.60;   BMIX_MAG =  1.00
     AMIN     =   0.10
     WC   =   100.;   INIMIX=   1;  MIXPRE=   1;  MAXMIX= -45

 Intra band minimization:
   WEIMIN = 0.0000     energy-eigenvalue tresh-hold
   EBREAK =  0.31E-11  absolut break condition
   DEPER  =   0.30     relativ break condition  

   TIME   =   0.40     timestep for ELM

  volume/ion in A,a.u.               =      24.06       162.34
  Fermi-wavevector in a.u.,A,eV,Ry     =   0.900227  1.701183 11.026283  0.810409
  Thomas-Fermi vector in A             =   2.023159
 
 Write flags
   LWAVE  =      T    write WAVECAR
   LCHARG =      T    write CHGCAR
   LVTOT  =      F    write LOCPOT, total local potential
   LVHAR  =      F    write LOCPOT, Hartree potential only
   LELF   =      F    write electronic localiz. function (ELF)
   LORBIT =      0    0 simple, 1 ext, 2 COOP (PROOUT)


 Dipole corrections
   LMONO  =      F    monopole corrections only (constant potential shift)
   LDIPOL =      F    correct potential (dipole corrections)
   IDIPOL =      0    1-x, 2-y, 3-z, 4-all directions 
   EPSILON=  1.0000000 bulk dielectric constant

 Exchange correlation treatment:
   GGA     =    PE    GGA type
   LEXCH   =     8    internal setting for exchange type
   VOSKOWN=      0    Vosko Wilk Nusair interpolation
   LHFCALC =     F    Hartree Fock is set to
   LHFONE  =     F    Hartree Fock one center treatment
   AEXX    =    0.0000 exact exchange contribution

 Linear response parameters
   LEPSILON=     F    determine dielectric tensor
   LRPA    =     F    only Hartree local field effects (RPA)
   LNABLA  =     F    use nabla operator in PAW spheres
   LVEL    =     F    velocity operator in full k-point grid
   LINTERFAST=   F  fast interpolation
   KINTER  =     0    interpolate to denser k-point grid
   CSHIFT  =0.1000    complex shift for real part using Kramers Kronig
   OMEGAMAX=  -1.0    maximum frequency
   DEG_THRESHOLD= 0.2000000E-02 threshold for treating states as degnerate
   RTIME   =    0.100 relaxation time in fs

 Orbital magnetization related:
   ORBITALMAG=     F  switch on orbital magnetization
   LCHIMAG   =     F  perturbation theory with respect to B field
   DQ        =  0.001000  dq finite difference perturbation B field



--------------------------------------------------------------------------------------------------------


 Static calculation
 charge density and potential will be updated during run
 non-spin polarized calculation
 Variant of blocked Davidson
 Davidson routine will perform the subspace rotation
 perform sub-space diagonalisation
    after iterative eigenvector-optimisation
 modified Broyden-mixing scheme, WC =      100.0
 initial mixing is a Kerker type mixing with AMIX =  0.4000 and BMIX =      1.0000
 Hartree-type preconditioning will be used
 using additional bands            4
 reciprocal scheme for non local part
 use partial core corrections
 calculate Harris-corrections to forces 
   (improved forces if not selfconsistent)
 use gradient corrections 
 use of overlap-Matrix (Vanderbilt PP)
 Fermi-smearing in eV        SIGMA  =   0.03


--------------------------------------------------------------------------------------------------------


  energy-cutoff  :      600.00
  volume of cell :       48.11
      direct lattice vectors                 reciprocal lattice vectors
     0.000000000  2.886751346  2.886751346    -0.173205081  0.173205081  0.173205081
     2.886751346  0.000000000  2.886751346     0.173205081 -0.173205081  0.173205081
     2.886751346  2.886751346  0.000000000     0.173205081  0.173205081 -0.173205081

  length of vectors
     4.082482905  4.082482905  4.082482905     0.300000000  0.300000000  0.300000000


 
 k-points in units of 2pi/SCALE and weight: Gamma centered Monkhorst-Pack           
   0.00000000  0.00000000  0.00000000       0.001
  -0.08333333  0.08333333  0.08333333       0.005
  -0.16666667  0.16666667  0.16666667       0.005
  -0.25000000  0.25000000  0.25000000       0.005
  -0.33333333  0.33333333  0.33333333       0.005
  -0.41666667  0.41666667  0.41666667       0.005
  -0.50000000  0.50000000  0.50000000       0.002
   0.00000000  0.00000000  0.16666667       0.003
  -0.08333333  0.08333333  0.25000000       0.014
  -0.16666667  0.16666667  0.33333333       0.014
  -0.25000000  0.25000000  0.41666667       0.014
  -0.33333333  0.33333333  0.50000000       0.014
  -0.41666667  0.41666667  0.58333333       0.014
   0.50000000 -0.50000000 -0.33333333       0.014
   0.41666667 -0.41666667 -0.25000000       0.014
   0.33333333 -0.33333333 -0.16666667       0.014
   0.25000000 -0.25000000 -0.08333333       0.014
   0.16666667 -0.16666667  0.00000000       0.007
   0.00000000  0.00000000  0.33333333       0.003
  -0.08333333  0.08333333  0.41666667       0.014
  -0.16666667  0.16666667  0.50000000       0.014
  -0.25000000  0.25000000  0.58333333       0.014
  -0.33333333  0.33333333  0.66666667       0.014
   0.58333333 -0.58333333 -0.25000000       0.014
   0.50000000 -0.50000000 -0.16666667       0.014
   0.41666667 -0.41666667 -0.08333333       0.014
   0.33333333 -0.33333333  0.00000000       0.007
   0.00000000  0.00000000  0.50000000       0.003
  -0.08333333  0.08333333  0.58333333       0.014
  -0.16666667  0.16666667  0.66666667       0.014
  -0.25000000  0.25000000  0.75000000       0.014
   0.66666667 -0.66666667 -0.16666667       0.014
   0.58333333 -0.58333333 -0.08333333       0.014
   0.50000000 -0.50000000  0.00000000       0.007
   0.00000000  0.00000000  0.66666667       0.003
  -0.08333333  0.08333333  0.75000000       0.014
  -0.16666667  0.16666667  0.83333333       0.014
   0.75000000 -0.75000000 -0.08333333       0.014
   0.66666667 -0.66666667  0.00000000       0.007
   0.00000000  0.00000000  0.83333333       0.003
  -0.08333333  0.08333333  0.91666667       0.014
   0.83333333 -0.83333333  0.00000000       0.007
   0.00000000  0.00000000  1.00000000       0.002
   0.00000000  0.16666667  0.33333333       0.014
  -0.08333333  0.25000000  0.41666667       0.028
  -0.16666667  0.33333333  0.50000000       0.028
  -0.25000000  0.41666667  0.58333333       0.028
   0.66666667 -0.50000000 -0.33333333       0.014
   0.00000000  0.16666667  0.50000000       0.014
  -0.08333333  0.25000000  0.58333333       0.028
  -0.16666667  0.33333333  0.66666667       0.028
   0.75000000 -0.58333333 -0.25000000       0.028
   0.66666667 -0.50000000 -0.16666667       0.028
   0.58333333 -0.41666667 -0.08333333       0.028
   0.50000000 -0.33333333  0.00000000       0.014
  -0.00000000  0.16666667  0.66666667       0.014
  -0.08333333  0.25000000  0.75000000       0.028
   0.83333333 -0.66666667 -0.16666667       0.028
   0.75000000 -0.58333333 -0.08333333       0.028
   0.66666667 -0.50000000 -0.00000000       0.014
   0.00000000  0.16666667  0.83333333       0.014
   0.91666667 -0.75000000 -0.08333333       0.028
   0.83333333 -0.66666667  0.00000000       0.014
   1.00000000 -0.83333333  0.00000000       0.007
   0.00000000  0.33333333  0.66666667       0.014
   0.91666667 -0.58333333 -0.25000000       0.028
   0.83333333 -0.50000000 -0.16666667       0.014
   1.00000000 -0.66666667 -0.16666667       0.014
   0.91666667 -0.58333333 -0.08333333       0.028
   0.83333333 -0.50000000  0.00000000       0.014
   1.00000000 -0.66666667  0.00000000       0.007
   1.00000000 -0.50000000  0.00000000       0.003
 
 k-points in reciprocal lattice and weights: Gamma centered Monkhorst-Pack           
   0.00000000  0.00000000  0.00000000       0.001
   0.08333333  0.00000000  0.00000000       0.005
   0.16666667  0.00000000  0.00000000       0.005
   0.25000000  0.00000000  0.00000000       0.005
   0.33333333  0.00000000  0.00000000       0.005
   0.41666667  0.00000000  0.00000000       0.005
   0.50000000  0.00000000  0.00000000       0.002
   0.08333333  0.08333333  0.00000000       0.003
   0.16666667  0.08333333  0.00000000       0.014
   0.25000000  0.08333333  0.00000000       0.014
   0.33333333  0.08333333  0.00000000       0.014
   0.41666667  0.08333333  0.00000000       0.014
   0.50000000  0.08333333  0.00000000       0.014
  -0.41666667  0.08333333  0.00000000       0.014
  -0.33333333  0.08333333  0.00000000       0.014
  -0.25000000  0.08333333  0.00000000       0.014
  -0.16666667  0.08333333  0.00000000       0.014
  -0.08333333  0.08333333  0.00000000       0.007
   0.16666667  0.16666667  0.00000000       0.003
   0.25000000  0.16666667  0.00000000       0.014
   0.33333333  0.16666667  0.00000000       0.014
   0.41666667  0.16666667  0.00000000       0.014
   0.50000000  0.16666667  0.00000000       0.014
  -0.41666667  0.16666667  0.00000000       0.014
  -0.33333333  0.16666667  0.00000000       0.014
  -0.25000000  0.16666667  0.00000000       0.014
  -0.16666667  0.16666667  0.00000000       0.007
   0.25000000  0.25000000  0.00000000       0.003
   0.33333333  0.25000000  0.00000000       0.014
   0.41666667  0.25000000  0.00000000       0.014
   0.50000000  0.25000000  0.00000000       0.014
  -0.41666667  0.25000000  0.00000000       0.014
  -0.33333333  0.25000000  0.00000000       0.014
  -0.25000000  0.25000000  0.00000000       0.007
   0.33333333  0.33333333  0.00000000       0.003
   0.41666667  0.33333333  0.00000000       0.014
   0.50000000  0.33333333  0.00000000       0.014
  -0.41666667  0.33333333  0.00000000       0.014
  -0.33333333  0.33333333  0.00000000       0.007
   0.41666667  0.41666667  0.00000000       0.003
   0.50000000  0.41666667  0.00000000       0.014
  -0.41666667  0.41666667  0.00000000       0.007
   0.50000000  0.50000000  0.00000000       0.002
   0.25000000  0.16666667  0.08333333       0.014
   0.33333333  0.16666667  0.08333333       0.028
   0.41666667  0.16666667  0.08333333       0.028
   0.50000000  0.16666667  0.08333333       0.028
  -0.41666667  0.16666667  0.08333333       0.014
   0.33333333  0.25000000  0.08333333       0.014
   0.41666667  0.25000000  0.08333333       0.028
   0.50000000  0.25000000  0.08333333       0.028
  -0.41666667  0.25000000  0.08333333       0.028
  -0.33333333  0.25000000  0.08333333       0.028
  -0.25000000  0.25000000  0.08333333       0.028
  -0.16666667  0.25000000  0.08333333       0.014
   0.41666667  0.33333333  0.08333333       0.014
   0.50000000  0.33333333  0.08333333       0.028
  -0.41666667  0.33333333  0.08333333       0.028
  -0.33333333  0.33333333  0.08333333       0.028
  -0.25000000  0.33333333  0.08333333       0.014
   0.50000000  0.41666667  0.08333333       0.014
  -0.41666667  0.41666667  0.08333333       0.028
  -0.33333333  0.41666667  0.08333333       0.014
  -0.41666667  0.50000000  0.08333333       0.007
   0.50000000  0.33333333  0.16666667       0.014
  -0.41666667  0.33333333  0.16666667       0.028
  -0.33333333  0.33333333  0.16666667       0.014
  -0.41666667  0.41666667  0.16666667       0.014
  -0.33333333  0.41666667  0.16666667       0.028
  -0.25000000  0.41666667  0.16666667       0.014
  -0.33333333  0.50000000  0.16666667       0.007
  -0.25000000  0.50000000  0.25000000       0.003
 
 position of ions in fractional coordinates (direct lattice) 
   0.00000000  0.00000000  0.00000000
   0.25000000  0.25000000  0.25000000
 
 position of ions in cartesian coordinates  (Angst):
   0.00000000  0.00000000  0.00000000
   1.44337567  1.44337567  1.44337567
 


--------------------------------------------------------------------------------------------------------


 k-point  1 :   0.0000 0.0000 0.0000  plane waves:    1639
 k-point  2 :   0.0833 0.0000 0.0000  plane waves:    1600
 k-point  3 :   0.1667 0.0000 0.0000  plane waves:    1591
 k-point  4 :   0.2500 0.0000 0.0000  plane waves:    1603
 k-point  5 :   0.3333 0.0000 0.0000  plane waves:    1609
 k-point  6 :   0.4167 0.0000 0.0000  plane waves:    1601
 k-point  7 :   0.5000 0.0000 0.0000  plane waves:    1622
 k-point  8 :   0.0833 0.0833 0.0000  plane waves:    1595
 k-point  9 :   0.1667 0.0833 0.0000  plane waves:    1591
 k-point 10 :   0.2500 0.0833 0.0000  plane waves:    1602
 k-point 11 :   0.3333 0.0833 0.0000  plane waves:    1601
 k-point 12 :   0.4167 0.0833 0.0000  plane waves:    1605
 k-point 13 :   0.5000 0.0833 0.0000  plane waves:    1601
 k-point 14 :  -0.4167 0.0833 0.0000  plane waves:    1608
 k-point 15 :  -0.3333 0.0833 0.0000  plane waves:    1606
 k-point 16 :  -0.2500 0.0833 0.0000  plane waves:    1605
 k-point 17 :  -0.1667 0.0833 0.0000  plane waves:    1598
 k-point 18 :  -0.0833 0.0833 0.0000  plane waves:    1588
 k-point 19 :   0.1667 0.1667 0.0000  plane waves:    1591
 k-point 20 :   0.2500 0.1667 0.0000  plane waves:    1601
 k-point 21 :   0.3333 0.1667 0.0000  plane waves:    1600
 k-point 22 :   0.4167 0.1667 0.0000  plane waves:    1605
 k-point 23 :   0.5000 0.1667 0.0000  plane waves:    1599
 k-point 24 :  -0.4167 0.1667 0.0000  plane waves:    1600
 k-point 25 :  -0.3333 0.1667 0.0000  plane waves:    1598
 k-point 26 :  -0.2500 0.1667 0.0000  plane waves:    1599
 k-point 27 :  -0.1667 0.1667 0.0000  plane waves:    1604
 k-point 28 :   0.2500 0.2500 0.0000  plane waves:    1612
 k-point 29 :   0.3333 0.2500 0.0000  plane waves:    1607
 k-point 30 :   0.4167 0.2500 0.0000  plane waves:    1612
 k-point 31 :   0.5000 0.2500 0.0000  plane waves:    1609
 k-point 32 :  -0.4167 0.2500 0.0000  plane waves:    1607
 k-point 33 :  -0.3333 0.2500 0.0000  plane waves:    1599
 k-point 34 :  -0.2500 0.2500 0.0000  plane waves:    1604
 k-point 35 :   0.3333 0.3333 0.0000  plane waves:    1624
 k-point 36 :   0.4167 0.3333 0.0000  plane waves:    1616
 k-point 37 :   0.5000 0.3333 0.0000  plane waves:    1619
 k-point 38 :  -0.4167 0.3333 0.0000  plane waves:    1612
 k-point 39 :  -0.3333 0.3333 0.0000  plane waves:    1612
 k-point 40 :   0.4167 0.4167 0.0000  plane waves:    1608
 k-point 41 :   0.5000 0.4167 0.0000  plane waves:    1614
 k-point 42 :  -0.4167 0.4167 0.0000  plane waves:    1606
 k-point 43 :   0.5000 0.5000 0.0000  plane waves:    1588
 k-point 44 :   0.2500 0.1667 0.0833  plane waves:    1603
 k-point 45 :   0.3333 0.1667 0.0833  plane waves:    1604
 k-point 46 :   0.4167 0.1667 0.0833  plane waves:    1602
 k-point 47 :   0.5000 0.1667 0.0833  plane waves:    1607
 k-point 48 :  -0.4167 0.1667 0.0833  plane waves:    1602
 k-point 49 :   0.3333 0.2500 0.0833  plane waves:    1607
 k-point 50 :   0.4167 0.2500 0.0833  plane waves:    1608
 k-point 51 :   0.5000 0.2500 0.0833  plane waves:    1611
 k-point 52 :  -0.4167 0.2500 0.0833  plane waves:    1602
 k-point 53 :  -0.3333 0.2500 0.0833  plane waves:    1601
 k-point 54 :  -0.2500 0.2500 0.0833  plane waves:    1601
 k-point 55 :  -0.1667 0.2500 0.0833  plane waves:    1596
 k-point 56 :   0.4167 0.3333 0.0833  plane waves:    1611
 k-point 57 :   0.5000 0.3333 0.0833  plane waves:    1615
 k-point 58 :  -0.4167 0.3333 0.0833  plane waves:    1608
 k-point 59 :  -0.3333 0.3333 0.0833  plane waves:    1608
 k-point 60 :  -0.2500 0.3333 0.0833  plane waves:    1603
 k-point 61 :   0.5000 0.4167 0.0833  plane waves:    1611
 k-point 62 :  -0.4167 0.4167 0.0833  plane waves:    1615
 k-point 63 :  -0.3333 0.4167 0.0833  plane waves:    1610
 k-point 64 :  -0.4167 0.5000 0.0833  plane waves:    1612
 k-point 65 :   0.5000 0.3333 0.1667  plane waves:    1610
 k-point 66 :  -0.4167 0.3333 0.1667  plane waves:    1607
 k-point 67 :  -0.3333 0.3333 0.1667  plane waves:    1596
 k-point 68 :  -0.4167 0.4167 0.1667  plane waves:    1618
 k-point 69 :  -0.3333 0.4167 0.1667  plane waves:    1609
 k-point 70 :  -0.2500 0.4167 0.1667  plane waves:    1606
 k-point 71 :  -0.3333 0.5000 0.1667  plane waves:    1614
 k-point 72 :  -0.2500 0.5000 0.2500  plane waves:    1604

 maximum and minimum number of plane-waves per node :      1639     1588

 maximum number of plane-waves:      1639
 maximum index in each direction: 
   IXMAX=    8   IYMAX=    8   IZMAX=    8
   IXMIN=   -8   IYMIN=   -8   IZMIN=   -8

 WARNING: aliasing errors must be expected set NGX to  34 to avoid them
 WARNING: aliasing errors must be expected set NGY to  34 to avoid them
 WARNING: aliasing errors must be expected set NGZ to  34 to avoid them
 aliasing errors are usually negligible using standard VASP settings
 and one can safely disregard these warnings

 serial   3D FFT for wavefunctions
 parallel 3D FFT for charge:
    minimum data exchange during FFTs selected (reduces bandwidth)


 total amount of memory used by VASP on root node    44381. kBytes
========================================================================

   base      :      30000. kBytes
   nonl-proj :       7609. kBytes
   fftplans  :       1025. kBytes
   grid      :       1926. kBytes
   one-center:          6. kBytes
   wavefun   :       3815. kBytes
 
     INWAV:  cpu time    0.00: real time    0.00
 Broyden mixing: mesh for mixing (old mesh)
   NGX = 17   NGY = 17   NGZ = 17
  (NGX  = 48   NGY  = 48   NGZ  = 48)
  gives a total of   4913 points

 initial charge density was supplied:
 charge density of overlapping atoms calculated
 number of electron       8.0000000 magnetization 
 keeping initial charge density in first step


--------------------------------------------------------------------------------------------------------


 Maximum index for augmentation-charges         2397 (set IRDMAX)


--------------------------------------------------------------------------------------------------------


 First call to EWALD:  gamma=   0.487
 Maximum number of real-space cells 3x 3x 3
 Maximum number of reciprocal cells 3x 3x 3

 FEWALD executed in parallel
    FEWALD:  cpu time    0.00: real time    0.00


----------------------------------------- Iteration    1(   1)  ---------------------------------------


    POTLOK:  cpu time    0.01: real time    0.01
    SETDIJ:  cpu time    0.00: real time    0.00
     EDDAV:  cpu time    0.29: real time    0.29
       DOS:  cpu time    0.00: real time    0.00
    --------------------------------------------
      LOOP:  cpu time    0.30: real time    0.31

 eigenvalue-minimisations  :  1152
 total energy-change (2. order) : 0.8479458E+01  (-0.3450088E+03)
 number of electron       8.0000000 magnetization 
 augmentation part        8.0000000 magnetization 

 Free energy of the ion-electron system (eV)
  ---------------------------------------------------
  alpha Z        PSCENC =         2.79869578
  Ewald energy   TEWEN  =      -214.96481540
  -Hartree energ DENC   =       -13.93452667
  -exchange      EXHF   =         0.00000000
  -V(xc)+E(xc)   XCENC  =       -19.28422582
  PAW double counting   =        65.95520812      -30.76852678
  entropy T*S    EENTRO =        -0.00124212
  eigenvalues    EBANDS =        12.54577139
  atomic energy  EATOM  =       206.13311910
  ---------------------------------------------------
  free energy    TOTEN  =         8.47945760 eV

  energy without entropy =        8.48069973  energy(sigma->0) =        8.48007867


--------------------------------------------------------------------------------------------------------




----------------------------------------- Iteration    1(   2)  ---------------------------------------


     EDDAV:  cpu time    0.41: real time    0.44
       DOS:  cpu time    0.00: real time    0.00
    --------------------------------------------
      LOOP:  cpu time    0.41: real time    0.44

 eigenvalue-minimisations  :  1688
 total energy-change (2. order) :-0.1885198E+02  (-0.1827968E+02)
 number of electron       8.0000000 magnetization 
 augmentation part        8.0000000 magnetization 

 Free energy of the ion-electron system (eV)
  ---------------------------------------------------
  alpha Z        PSCENC =         2.79869578
  Ewald energy   TEWEN  =      -214.96481540
  -Hartree energ DENC   =       -13.93452667
  -exchange      EXHF   =         0.00000000
  -V(xc)+E(xc)   XCENC  =       -19.28422582
  PAW double counting   =        65.95520812      -30.76852678
  entropy T*S    EENTRO =        -0.00000000
  eigenvalues    EBANDS =        -6.30745474
  atomic energy  EATOM  =       206.13311910
  ---------------------------------------------------
  free energy    TOTEN  =       -10.37252640 eV

  energy without entropy =      -10.37252640  energy(sigma->0) =      -10.37252640


--------------------------------------------------------------------------------------------------------




----------------------------------------- Iteration    1(   3)  ---------------------------------------


     EDDAV:  cpu time    0.35: real time    0.39
       DOS:  cpu time    0.00: real time    0.00
    --------------------------------------------
      LOOP:  cpu time    0.36: real time    0.39

 eigenvalue-minimisations  :  1584
 total energy-change (2. order) :-0.3055545E+00  (-0.3055545E+00)
 number of electron       8.0000000 magnetization 
 augmentation part        8.0000000 magnetization 

 Free energy of the ion-electron system (eV)
  ---------------------------------------------------
  alpha Z        PSCENC =         2.79869578
  Ewald energy   TEWEN  =      -214.96481540
  -Hartree energ DENC   =       -13.93452667
  -exchange      EXHF   =         0.00000000
  -V(xc)+E(xc)   XCENC  =       -19.28422582
  PAW double counting   =        65.95520812      -30.76852678
  entropy T*S    EENTRO =        -0.00000000
  eigenvalues    EBANDS =        -6.61300926
  atomic energy  EATOM  =       206.13311910
  ---------------------------------------------------
  free energy    TOTEN  =       -10.67808093 eV

  energy without entropy =      -10.67808093  energy(sigma->0) =      -10.67808093


--------------------------------------------------------------------------------------------------------




----------------------------------------- Iteration    1(   4)  ---------------------------------------


     EDDAV:  cpu time    0.43: real time    0.49
       DOS:  cpu time    0.00: real time    0.00
    --------------------------------------------
      LOOP:  cpu time    0.43: real time    0.50

 eigenvalue-minimisations  :  1760
 total energy-change (2. order) :-0.1346918E-02  (-0.1346918E-02)
 number of electron       8.0000000 magnetization 
 augmentation part        8.0000000 magnetization 

 Free energy of the ion-electron system (eV)
  ---------------------------------------------------
  alpha Z        PSCENC =         2.79869578
  Ewald energy   TEWEN  =      -214.96481540
  -Hartree energ DENC   =       -13.93452667
  -exchange      EXHF   =         0.00000000
  -V(xc)+E(xc)   XCENC  =       -19.28422582
  PAW double counting   =        65.95520812      -30.76852678
  entropy T*S    EENTRO =        -0.00000000
  eigenvalues    EBANDS =        -6.61435618
  atomic energy  EATOM  =       206.13311910
  ---------------------------------------------------
  free energy    TOTEN  =       -10.67942784 eV

  energy without entropy =      -10.67942784  energy(sigma->0) =      -10.67942784


--------------------------------------------------------------------------------------------------------




----------------------------------------- Iteration    1(   5)  ---------------------------------------


     EDDAV:  cpu time    0.39: real time    0.43
       DOS:  cpu time    0.00: real time    0.00
    CHARGE:  cpu time    0.02: real time    0.02
    MIXING:  cpu time    0.00: real time    0.00
    --------------------------------------------
      LOOP:  cpu time    0.41: real time    0.46

 eigenvalue-minimisations  :  1624
 total energy-change (2. order) :-0.4042222E-05  (-0.4042203E-05)
 number of electron       7.9999997 magnetization 
 augmentation part       -0.4659580 magnetization 

 Broyden mixing:
  rms(total) = 0.25751E+00    rms(broyden)= 0.25751E+00
  rms(prec ) = 0.70964E+00
  weight for this iteration     100.00

 Free energy of the ion-electron system (eV)
  ---------------------------------------------------
  alpha Z        PSCENC =         2.79869578
  Ewald energy   TEWEN  =      -214.96481540
  -Hartree energ DENC   =       -13.93452667
  -exchange      EXHF   =         0.00000000
  -V(xc)+E(xc)   XCENC  =       -19.28422582
  PAW double counting   =        65.95520812      -30.76852678
  entropy T*S    EENTRO =        -0.00000000
  eigenvalues    EBANDS =        -6.61436022
  atomic energy  EATOM  =       206.13311910
  ---------------------------------------------------
  free energy    TOTEN  =       -10.67943189 eV

  energy without entropy =      -10.67943189  energy(sigma->0) =      -10.67943189


--------------------------------------------------------------------------------------------------------




----------------------------------------- Iteration    1(   6)  ---------------------------------------


    POTLOK:  cpu time    0.01: real time    0.01
    SETDIJ:  cpu time    0.00: real time    0.00
     EDDAV:  cpu time    0.32: real time    0.34
       DOS:  cpu time    0.00: real time    0.00
    CHARGE:  cpu time    0.02: real time    0.02
    MIXING:  cpu time    0.00: real time    0.00
    --------------------------------------------
      LOOP:  cpu time    0.36: real time    0.38

 eigenvalue-minimisations  :  1416
 total energy-change (2. order) : 0.6139069E-01  (-0.3436921E-02)
 number of electron       7.9999997 magnetization 
 augmentation part       -0.4625748 magnetization 

 Broyden mixing:
  rms(total) = 0.15669E+00    rms(broyden)= 0.15669E+00
  rms(prec ) = 0.43180E+00
  weight for this iteration     100.00

 eigenvalues of (default mixing * dielectric matrix)
  average eigenvalue GAMMA=   2.5366
  2.5366

 Free energy of the ion-electron system (eV)
  ---------------------------------------------------
  alpha Z        PSCENC =         2.79869578
  Ewald energy   TEWEN  =      -214.96481540
  -Hartree energ DENC   =       -15.10906749
  -exchange      EXHF   =         0.00000000
  -V(xc)+E(xc)   XCENC  =       -19.10422190
  PAW double counting   =        67.81900467      -32.68127988
  entropy T*S    EENTRO =        -0.00000000
  eigenvalues    EBANDS =        -5.50947608
  atomic energy  EATOM  =       206.13311910
  ---------------------------------------------------
  free energy    TOTEN  =       -10.61804119 eV

  energy without entropy =      -10.61804119  energy(sigma->0) =      -10.61804119


--------------------------------------------------------------------------------------------------------




----------------------------------------- Iteration    1(   7)  ---------------------------------------


    POTLOK:  cpu time    0.02: real time    0.04
    SETDIJ:  cpu time    0.00: real time    0.00
     EDDAV:  cpu time    0.41: real time    0.44
       DOS:  cpu time    0.00: real time    0.00
    CHARGE:  cpu time    0.02: real time    0.02
    MIXING:  cpu time    0.00: real time    0.00
    --------------------------------------------
      LOOP:  cpu time    0.46: real time    0.50

 eigenvalue-minimisations  :  1424
 total energy-change (2. order) : 0.3314401E-01  (-0.7808867E-02)
 number of electron       7.9999997 magnetization 
 augmentation part       -0.4586512 magnetization 

 Broyden mixing:
  rms(total) = 0.11624E-01    rms(broyden)= 0.11624E-01
  rms(prec ) = 0.29296E-01
  weight for this iteration     100.00

 eigenvalues of (default mixing * dielectric matrix)
  average eigenvalue GAMMA=   2.5071
  2.5071  2.5071

 Free energy of the ion-electron system (eV)
  ---------------------------------------------------
  alpha Z        PSCENC =         2.79869578
  Ewald energy   TEWEN  =      -214.96481540
  -Hartree energ DENC   =       -17.16875005
  -exchange      EXHF   =         0.00000000
  -V(xc)+E(xc)   XCENC  =       -18.78072104
  PAW double counting   =        70.14930551      -35.07124503
  entropy T*S    EENTRO =        -0.00000000
  eigenvalues    EBANDS =        -3.68048606
  atomic energy  EATOM  =       206.13311910
  ---------------------------------------------------
  free energy    TOTEN  =       -10.58489718 eV

  energy without entropy =      -10.58489718  energy(sigma->0) =      -10.58489718


--------------------------------------------------------------------------------------------------------




----------------------------------------- Iteration    1(   8)  ---------------------------------------


    POTLOK:  cpu time    0.01: real time    0.01
    SETDIJ:  cpu time    0.00: real time    0.00
     EDDAV:  cpu time    0.30: real time    0.36
       DOS:  cpu time    0.00: real time    0.00
    CHARGE:  cpu time    0.02: real time    0.02
    MIXING:  cpu time    0.00: real time    0.00
    --------------------------------------------
      LOOP:  cpu time    0.33: real time    0.40

 eigenvalue-minimisations  :  1280
 total energy-change (2. order) :-0.1360909E-02  (-0.2836959E-03)
 number of electron       7.9999997 magnetization 
 augmentation part       -0.4593478 magnetization 

 Broyden mixing:
  rms(total) = 0.26383E-02    rms(broyden)= 0.26383E-02
  rms(prec ) = 0.87464E-02
  weight for this iteration     100.00

 eigenvalues of (default mixing * dielectric matrix)
  average eigenvalue GAMMA=   2.1599
  1.2371  2.8908  2.3517

 Free energy of the ion-electron system (eV)
  ---------------------------------------------------
  alpha Z        PSCENC =         2.79869578
  Ewald energy   TEWEN  =      -214.96481540
  -Hartree energ DENC   =       -17.13295284
  -exchange      EXHF   =         0.00000000
  -V(xc)+E(xc)   XCENC  =       -18.78215317
  PAW double counting   =        69.42833059      -34.32945661
  entropy T*S    EENTRO =        -0.00000000
  eigenvalues    EBANDS =        -3.73702554
  atomic energy  EATOM  =       206.13311910
  ---------------------------------------------------
  free energy    TOTEN  =       -10.58625809 eV

  energy without entropy =      -10.58625809  energy(sigma->0) =      -10.58625809


--------------------------------------------------------------------------------------------------------




----------------------------------------- Iteration    1(   9)  ---------------------------------------


    POTLOK:  cpu time    0.01: real time    0.01
    SETDIJ:  cpu time    0.00: real time    0.00
     EDDAV:  cpu time    0.41: real time    0.41
       DOS:  cpu time    0.00: real time    0.00
    CHARGE:  cpu time    0.02: real time    0.02
    MIXING:  cpu time    0.00: real time    0.00
    --------------------------------------------
      LOOP:  cpu time    0.44: real time    0.45

 eigenvalue-minimisations  :  1696
 total energy-change (2. order) :-0.1522583E-03  (-0.1705491E-04)
 number of electron       7.9999997 magnetization 
 augmentation part       -0.4594102 magnetization 

 Broyden mixing:
  rms(total) = 0.13948E-02    rms(broyden)= 0.13948E-02
  rms(prec ) = 0.35500E-02
  weight for this iteration     100.00

 eigenvalues of (default mixing * dielectric matrix)
  average eigenvalue GAMMA=   2.2549
  0.9762  3.1785  2.4325  2.4325

 Free energy of the ion-electron system (eV)
  ---------------------------------------------------
  alpha Z        PSCENC =         2.79869578
  Ewald energy   TEWEN  =      -214.96481540
  -Hartree energ DENC   =       -17.17898501
  -exchange      EXHF   =         0.00000000
  -V(xc)+E(xc)   XCENC  =       -18.77526715
  PAW double counting   =        69.36329218      -34.26296777
  entropy T*S    EENTRO =        -0.00000000
  eigenvalues    EBANDS =        -3.69948209
  atomic energy  EATOM  =       206.13311910
  ---------------------------------------------------
  free energy    TOTEN  =       -10.58641034 eV

  energy without entropy =      -10.58641034  energy(sigma->0) =      -10.58641034


--------------------------------------------------------------------------------------------------------




----------------------------------------- Iteration    1(  10)  ---------------------------------------


    POTLOK:  cpu time    0.02: real time    0.02
    SETDIJ:  cpu time    0.00: real time    0.01
     EDDAV:  cpu time    0.30: real time    0.30
       DOS:  cpu time    0.00: real time    0.00
    CHARGE:  cpu time    0.02: real time    0.02
    MIXING:  cpu time    0.00: real time    0.00
    --------------------------------------------
      LOOP:  cpu time    0.34: real time    0.35

 eigenvalue-minimisations  :  1296
 total energy-change (2. order) :-0.1985371E-04  (-0.3455926E-05)
 number of electron       7.9999997 magnetization 
 augmentation part       -0.4593108 magnetization 

 Broyden mixing:
  rms(total) = 0.14619E-03    rms(broyden)= 0.14619E-03
  rms(prec ) = 0.41139E-03
  weight for this iteration     100.00

 eigenvalues of (default mixing * dielectric matrix)
  average eigenvalue GAMMA=   2.0939
  3.2942  2.6542  2.1705  0.9702  1.3805

 Free energy of the ion-electron system (eV)
  ---------------------------------------------------
  alpha Z        PSCENC =         2.79869578
  Ewald energy   TEWEN  =      -214.96481540
  -Hartree energ DENC   =       -17.19254647
  -exchange      EXHF   =         0.00000000
  -V(xc)+E(xc)   XCENC  =       -18.77496848
  PAW double counting   =        69.38981387      -34.29107791
  entropy T*S    EENTRO =        -0.00000000
  eigenvalues    EBANDS =        -3.68465070
  atomic energy  EATOM  =       206.13311910
  ---------------------------------------------------
  free energy    TOTEN  =       -10.58643020 eV

  energy without entropy =      -10.58643020  energy(sigma->0) =      -10.58643020


--------------------------------------------------------------------------------------------------------




----------------------------------------- Iteration    1(  11)  ---------------------------------------


    POTLOK:  cpu time    0.01: real time    0.01
    SETDIJ:  cpu time    0.00: real time    0.00
     EDDAV:  cpu time    0.41: real time    0.41
       DOS:  cpu time    0.00: real time    0.00
    CHARGE:  cpu time    0.02: real time    0.02
    MIXING:  cpu time    0.00: real time    0.00
    --------------------------------------------
      LOOP:  cpu time    0.44: real time    0.45

 eigenvalue-minimisations  :  1816
 total energy-change (2. order) : 0.6732327E-06  (-0.4680877E-07)
 number of electron       7.9999997 magnetization 
 augmentation part       -0.4593249 magnetization 

 Broyden mixing:
  rms(total) = 0.56217E-04    rms(broyden)= 0.56217E-04
  rms(prec ) = 0.10222E-03
  weight for this iteration     100.00

 eigenvalues of (default mixing * dielectric matrix)
  average eigenvalue GAMMA=   2.1694
  3.3318  2.8394  2.6378  2.1902  0.9764  1.0408

 Free energy of the ion-electron system (eV)
  ---------------------------------------------------
  alpha Z        PSCENC =         2.79869578
  Ewald energy   TEWEN  =      -214.96481540
  -Hartree energ DENC   =       -17.19006260
  -exchange      EXHF   =         0.00000000
  -V(xc)+E(xc)   XCENC  =       -18.77519177
  PAW double counting   =        69.37883044      -34.27964621
  entropy T*S    EENTRO =        -0.00000000
  eigenvalues    EBANDS =        -3.68735887
  atomic energy  EATOM  =       206.13311910
  ---------------------------------------------------
  free energy    TOTEN  =       -10.58642952 eV

  energy without entropy =      -10.58642952  energy(sigma->0) =      -10.58642952


--------------------------------------------------------------------------------------------------------




----------------------------------------- Iteration    1(  12)  ---------------------------------------


    POTLOK:  cpu time    0.01: real time    0.02
    SETDIJ:  cpu time    0.00: real time    0.00
     EDDAV:  cpu time    0.32: real time    0.34
       DOS:  cpu time    0.00: real time    0.00
    CHARGE:  cpu time    0.02: real time    0.02
    MIXING:  cpu time    0.00: real time    0.00
    --------------------------------------------
      LOOP:  cpu time    0.36: real time    0.38

 eigenvalue-minimisations  :  1248
 total energy-change (2. order) : 0.1532419E-07  (-0.7494703E-08)
 number of electron       7.9999997 magnetization 
 augmentation part       -0.4593231 magnetization 

 Broyden mixing:
  rms(total) = 0.57347E-05    rms(broyden)= 0.57346E-05
  rms(prec ) = 0.18112E-04
  weight for this iteration     100.00

 eigenvalues of (default mixing * dielectric matrix)
  average eigenvalue GAMMA=   1.9945
  3.3589  2.7533  2.4203  2.3217  0.9708  1.0682  1.0682

 Free energy of the ion-electron system (eV)
  ---------------------------------------------------
  alpha Z        PSCENC =         2.79869578
  Ewald energy   TEWEN  =      -214.96481540
  -Hartree energ DENC   =       -17.19055965
  -exchange      EXHF   =         0.00000000
  -V(xc)+E(xc)   XCENC  =       -18.77511962
  PAW double counting   =        69.38032603      -34.28106474
  entropy T*S    EENTRO =        -0.00000000
  eigenvalues    EBANDS =        -3.68701101
  atomic energy  EATOM  =       206.13311910
  ---------------------------------------------------
  free energy    TOTEN  =       -10.58642951 eV

  energy without entropy =      -10.58642951  energy(sigma->0) =      -10.58642951


--------------------------------------------------------------------------------------------------------




----------------------------------------- Iteration    1(  13)  ---------------------------------------


    POTLOK:  cpu time    0.01: real time    0.01
    SETDIJ:  cpu time    0.00: real time    0.00
     EDDAV:  cpu time    0.42: real time    0.43
       DOS:  cpu time    0.00: real time    0.00
    CHARGE:  cpu time    0.02: real time    0.02
    MIXING:  cpu time    0.00: real time    0.00
    --------------------------------------------
      LOOP:  cpu time    0.44: real time    0.47

 eigenvalue-minimisations  :  1912
 total energy-change (2. order) : 0.1661033E-07  (-0.7210391E-10)
 number of electron       7.9999997 magnetization 
 augmentation part       -0.4593236 magnetization 

 Broyden mixing:
  rms(total) = 0.20355E-05    rms(broyden)= 0.20355E-05
  rms(prec ) = 0.30192E-05
  weight for this iteration     100.00

 eigenvalues of (default mixing * dielectric matrix)
  average eigenvalue GAMMA=   2.0804
  3.3527  2.8208  2.7562  2.5177  2.2201  1.0262  0.9916  0.9576

 Free energy of the ion-electron system (eV)
  ---------------------------------------------------
  alpha Z        PSCENC =         2.79869578
  Ewald energy   TEWEN  =      -214.96481540
  -Hartree energ DENC   =       -17.19045887
  -exchange      EXHF   =         0.00000000
  -V(xc)+E(xc)   XCENC  =       -18.77512887
  PAW double counting   =        69.37989723      -34.28062521
  entropy T*S    EENTRO =        -0.00000000
  eigenvalues    EBANDS =        -3.68711326
  atomic energy  EATOM  =       206.13311910
  ---------------------------------------------------
  free energy    TOTEN  =       -10.58642949 eV

  energy without entropy =      -10.58642949  energy(sigma->0) =      -10.58642949


--------------------------------------------------------------------------------------------------------




----------------------------------------- Iteration    1(  14)  ---------------------------------------


    POTLOK:  cpu time    0.01: real time    0.01
    SETDIJ:  cpu time    0.00: real time    0.00
     EDDAV:  cpu time    0.28: real time    0.29
       DOS:  cpu time    0.00: real time    0.00
    CHARGE:  cpu time    0.02: real time    0.02
    MIXING:  cpu time    0.00: real time    0.00
    --------------------------------------------
      LOOP:  cpu time    0.31: real time    0.33

 eigenvalue-minimisations  :  1232
 total energy-change (2. order) :-0.5067847E-08  (-0.9330490E-11)
 number of electron       7.9999997 magnetization 
 augmentation part       -0.4593237 magnetization 

 Broyden mixing:
  rms(total) = 0.33750E-06    rms(broyden)= 0.33732E-06
  rms(prec ) = 0.92939E-06
  weight for this iteration     100.00

 eigenvalues of (default mixing * dielectric matrix)
  average eigenvalue GAMMA=   1.9651
  3.3616  2.8911  2.6523  2.5017  2.2534  1.0445  1.0445  0.9514  0.9856

 Free energy of the ion-electron system (eV)
  ---------------------------------------------------
  alpha Z        PSCENC =         2.79869578
  Ewald energy   TEWEN  =      -214.96481540
  -Hartree energ DENC   =       -17.19044968
  -exchange      EXHF   =         0.00000000
  -V(xc)+E(xc)   XCENC  =       -18.77512849
  PAW double counting   =        69.37985603      -34.28058954
  entropy T*S    EENTRO =        -0.00000000
  eigenvalues    EBANDS =        -3.68711730
  atomic energy  EATOM  =       206.13311910
  ---------------------------------------------------
  free energy    TOTEN  =       -10.58642950 eV

  energy without entropy =      -10.58642950  energy(sigma->0) =      -10.58642950


--------------------------------------------------------------------------------------------------------




----------------------------------------- Iteration    1(  15)  ---------------------------------------


    POTLOK:  cpu time    0.02: real time    0.01
    SETDIJ:  cpu time    0.00: real time    0.00
     EDDAV:  cpu time    0.21: real time    0.22
       DOS:  cpu time    0.00: real time    0.00
    CHARGE:  cpu time    0.02: real time    0.02
    MIXING:  cpu time    0.00: real time    0.00
    --------------------------------------------
      LOOP:  cpu time    0.24: real time    0.26

 eigenvalue-minimisations  :   784
 total energy-change (2. order) :-0.1282871E-08  (-0.1600857E-12)
 number of electron       7.9999997 magnetization 
 augmentation part       -0.4593236 magnetization 

 Broyden mixing:
  rms(total) = 0.61737E-07    rms(broyden)= 0.60739E-07
  rms(prec ) = 0.11813E-06
  weight for this iteration     100.00

 eigenvalues of (default mixing * dielectric matrix)
  average eigenvalue GAMMA=   2.0451
  3.3624  2.9305  2.2442  2.7269  2.7269  2.4930  1.0143  0.9894  0.9816  0.9816

 Free energy of the ion-electron system (eV)
  ---------------------------------------------------
  alpha Z        PSCENC =         2.79869578
  Ewald energy   TEWEN  =      -214.96481540
  -Hartree energ DENC   =       -17.19045384
  -exchange      EXHF   =         0.00000000
  -V(xc)+E(xc)   XCENC  =       -18.77512839
  PAW double counting   =        69.37987675      -34.28061116
  entropy T*S    EENTRO =        -0.00000000
  eigenvalues    EBANDS =        -3.68711234
  atomic energy  EATOM  =       206.13311910
  ---------------------------------------------------
  free energy    TOTEN  =       -10.58642950 eV

  energy without entropy =      -10.58642950  energy(sigma->0) =      -10.58642950


--------------------------------------------------------------------------------------------------------




----------------------------------------- Iteration    1(  16)  ---------------------------------------


    POTLOK:  cpu time    0.01: real time    0.01
    SETDIJ:  cpu time    0.00: real time    0.00
     EDDAV:  cpu time    0.18: real time    0.18
       DOS:  cpu time    0.00: real time    0.00
    CHARGE:  cpu time    0.02: real time    0.02
    MIXING:  cpu time    0.00: real time    0.00
    --------------------------------------------
      LOOP:  cpu time    0.20: real time    0.22

 eigenvalue-minimisations  :   624
 total energy-change (2. order) : 0.1373905E-09  ( 0.9270378E-14)
 number of electron       7.9999997 magnetization 
 augmentation part       -0.4593236 magnetization 

 Broyden mixing:
  rms(total) = 0.16477E-07    rms(broyden)= 0.12217E-07
  rms(prec ) = 0.32394E-07
  weight for this iteration     100.00
  WARNING: grid for Broyden might be to small

 eigenvalues of (default mixing * dielectric matrix)
  average eigenvalue GAMMA=   1.9507
  3.3637  2.8930  2.8196  2.2517  2.5783  2.5162  0.9816  0.9643  0.9643  1.0278
  1.0967

 Free energy of the ion-electron system (eV)
  ---------------------------------------------------
  alpha Z        PSCENC =         2.79869578
  Ewald energy   TEWEN  =      -214.96481540
  -Hartree energ DENC   =       -17.19045334
  -exchange      EXHF   =         0.00000000
  -V(xc)+E(xc)   XCENC  =       -18.77512852
  PAW double counting   =        69.37987749      -34.28061176
  entropy T*S    EENTRO =        -0.00000000
  eigenvalues    EBANDS =        -3.68711285
  atomic energy  EATOM  =       206.13311910
  ---------------------------------------------------
  free energy    TOTEN  =       -10.58642950 eV

  energy without entropy =      -10.58642950  energy(sigma->0) =      -10.58642950


--------------------------------------------------------------------------------------------------------




----------------------------------------- Iteration    1(  17)  ---------------------------------------


    POTLOK:  cpu time    0.02: real time    0.01
    SETDIJ:  cpu time    0.00: real time    0.00
     EDDAV:  cpu time    0.18: real time    0.18
       DOS:  cpu time    0.00: real time    0.00
    --------------------------------------------
      LOOP:  cpu time    0.19: real time    0.20

 eigenvalue-minimisations  :   624
 total energy-change (2. order) : 0.8355983E-11  (-0.3198536E-13)
 number of electron       7.9999997 magnetization 
 augmentation part       -0.4593236 magnetization 

 Free energy of the ion-electron system (eV)
  ---------------------------------------------------
  alpha Z        PSCENC =         2.79869578
  Ewald energy   TEWEN  =      -214.96481540
  -Hartree energ DENC   =       -17.19045351
  -exchange      EXHF   =         0.00000000
  -V(xc)+E(xc)   XCENC  =       -18.77512849
  PAW double counting   =        69.37987754      -34.28061181
  entropy T*S    EENTRO =        -0.00000000
  eigenvalues    EBANDS =        -3.68711272
  atomic energy  EATOM  =       206.13311910
  ---------------------------------------------------
  free energy    TOTEN  =       -10.58642950 eV

  energy without entropy =      -10.58642950  energy(sigma->0) =      -10.58642950


--------------------------------------------------------------------------------------------------------




 average (electrostatic) potential at core
  the test charge radii are     0.9892
  (the norm of the test charge is              1.0000)
       1 -85.1873       2 -85.1873
 
 
 
 E-fermi :   4.5351     XC(G=0):  -8.7053     alpha+bet : -9.9702


 k-point     1 :       0.0000    0.0000    0.0000
  band No.  band energies     occupation 
      1      -6.6764      2.00000
      2       4.1172      2.00000
      3       4.1172      2.00000
      4       4.1172      2.00000
      5       5.5127      0.00000
      6       6.5875      0.00000
      7       6.5875      0.00000
      8       6.5875      0.00000

 k-point     2 :       0.0833    0.0000    0.0000
  band No.  band energies     occupation 
      1      -6.5991      2.00000
      2       3.1890      2.00000
      3       3.9997      2.00000
      4       3.9997      2.00000
      5       5.9087      0.00000
      6       6.7613      0.00000
      7       6.7613      0.00000
      8       6.9976      0.00000

 k-point     3 :       0.1667    0.0000    0.0000
  band No.  band energies     occupation 
      1      -6.3700      2.00000
      2       1.7989      2.00000
      3       3.7412      2.00000
      4       3.7412      2.00000
      5       5.7725      0.00000
      6       7.1379      0.00000
      7       7.1379      0.00000
      8       8.2565      0.00000

 k-point     4 :       0.2500    0.0000    0.0000
  band No.  band energies     occupation 
      1      -6.0008      2.00000
      2       0.4496      2.00000
      3       3.4722      2.00000
      4       3.4722      2.00000
      5       5.4872      0.00000
      6       7.4474      0.00000
      7       7.4474      0.00000
      8       9.6512      0.00000

 k-point     5 :       0.3333    0.0000    0.0000
  band No.  band energies     occupation 
      1      -5.5222      2.00000
      2      -0.7545      2.00000
      3       3.2584      2.00000
      4       3.2584      2.00000
      5       5.2402      0.00000
      6       7.5420      0.00000
      7       7.5420      0.00000
      8      10.9576      0.00000

 k-point     6 :       0.4167    0.0000    0.0000
  band No.  band energies     occupation 
      1      -5.0252      2.00000
      2      -1.6949      2.00000
      3       3.1247      2.00000
      4       3.1247      2.00000
      5       5.0810      0.00000
      6       7.5099      0.00000
      7       7.5099      0.00000
      8      11.5417      0.00000

 k-point     7 :       0.5000    0.0000    0.0000
  band No.  band energies     occupation 
      1      -4.7727      2.00000
      2      -2.0964      2.00000
      3       3.0794      2.00000
      4       3.0794      2.00000
      5       5.0265      0.00000
      6       7.4837      0.00000
      7       7.4837      0.00000
      8      11.5522      0.00000

 k-point     8 :       0.0833    0.0833    0.0000
  band No.  band energies     occupation 
      1      -6.5731      2.00000
      2       3.2096      2.00000
      3       3.7759      2.00000
      4       3.7759      2.00000
      5       6.3574      0.00000
      6       6.3867      0.00000
      7       7.0569      0.00000
      8       7.0569      0.00000

 k-point     9 :       0.1667    0.0833    0.0000
  band No.  band energies     occupation 
      1      -6.3940      2.00000
      2       2.1321      2.00000
      3       3.4726      2.00000
      4       3.5709      2.00000
      5       6.2968      0.00000
      6       6.6189      0.00000
      7       7.5142      0.00000
      8       7.9694      0.00000

 k-point    10 :       0.2500    0.0833    0.0000
  band No.  band energies     occupation 
      1      -6.0698      2.00000
      2       0.8393      2.00000
      3       3.2015      2.00000
      4       3.2773      2.00000
      5       6.1053      0.00000
      6       6.9529      0.00000
      7       7.8869      0.00000
      8       8.9485      0.00000

 k-point    11 :       0.3333    0.0833    0.0000
  band No.  band energies     occupation 
      1      -5.6223      2.00000
      2      -0.3848      2.00000
      3       2.9655      2.00000
      4       3.0129      2.00000
      5       5.8595      0.00000
      6       7.2460      0.00000
      7       7.9990      0.00000
      8       9.6932      0.00000

 k-point    12 :       0.4167    0.0833    0.0000
  band No.  band energies     occupation 
      1      -5.1132      2.00000
      2      -1.4147      2.00000
      3       2.7089      2.00000
      4       2.9252      2.00000
      5       5.6732      0.00000
      6       7.3440      0.00000
      7       7.9087      0.00000
      8      10.6223      0.00000

 k-point    13 :       0.5000    0.0833    0.0000
  band No.  band energies     occupation 
      1      -4.7349      2.00000
      2      -2.0335      2.00000
      3       2.5383      2.00000
      4       2.9414      2.00000
      5       5.5791      0.00000
      6       7.3980      0.00000
      7       7.7729      0.00000
      8      11.4974      0.00000

 k-point    14 :      -0.4167    0.0833    0.0000
  band No.  band energies     occupation 
      1      -4.8255      2.00000
      2      -1.8937      2.00000
      3       2.4692      2.00000
      4       3.0560      2.00000
      5       5.5878      0.00000
      6       7.5035      0.00000
      7       7.6734      0.00000
      8      11.5730      0.00000

 k-point    15 :      -0.3333    0.0833    0.0000
  band No.  band energies     occupation 
      1      -5.2837      2.00000
      2      -1.0993      2.00000
      3       2.5115      2.00000
      4       3.2564      2.00000
      5       5.6984      0.00000
      6       7.5964      0.00000
      7       7.6432      0.00000
      8      10.7832      0.00000

 k-point    16 :      -0.2500    0.0833    0.0000
  band No.  band energies     occupation 
      1      -5.7839      2.00000
      2       0.0086      2.00000
      3       2.6728      2.00000
      4       3.5199      2.00000
      5       5.8969      0.00000
      6       7.4390      0.00000
      7       7.6739      0.00000
      8       9.7446      0.00000

 k-point    17 :      -0.1667    0.0833    0.0000
  band No.  band energies     occupation 
      1      -6.1939      2.00000
      2       1.2534      2.00000
      3       2.9636      2.00000
      4       3.8011      2.00000
      5       6.1380      0.00000
      6       7.1219      0.00000
      7       7.3634      0.00000
      8       8.7944      0.00000

 k-point    18 :      -0.0833    0.0833    0.0000
  band No.  band energies     occupation 
      1      -6.4709      2.00000
      2       2.4437      2.00000
      3       3.4281      2.00000
      4       4.0051      2.00000
      5       6.2138      0.00000
      6       6.8053      0.00000
      7       6.8924      0.00000
      8       7.8095      0.00000

 k-point    19 :       0.1667    0.1667    0.0000
  band No.  band energies     occupation 
      1      -6.2649      2.00000
      2       1.8721      2.00000
      3       3.1428      2.00000
      4       3.1428      2.00000
      5       5.8673      0.00000
      6       7.3316      0.00000
      7       8.0692      0.00000
      8       8.0692      0.00000

 k-point    20 :       0.2500    0.1667    0.0000
  band No.  band energies     occupation 
      1      -5.9878      2.00000
      2       0.9603      2.00000
      3       2.8059      2.00000
      4       2.8569      2.00000
      5       5.8767      0.00000
      6       7.2998      0.00000
      7       8.5445      0.00000
      8       8.5716      0.00000

 k-point    21 :       0.3333    0.1667    0.0000
  band No.  band energies     occupation 
      1      -5.5780      2.00000
      2      -0.1229      2.00000
      3       2.3905      2.00000
      4       2.6642      2.00000
      5       6.0500      0.00000
      6       7.4558      0.00000
      7       8.5704      0.00000
      8       8.7976      0.00000

 k-point    22 :       0.4167    0.1667    0.0000
  band No.  band energies     occupation 
      1      -5.0770      2.00000
      2      -1.1418      2.00000
      3       2.0020      2.00000
      4       2.5841      2.00000
      5       6.0428      0.00000
      6       7.7418      0.00000
      7       8.7313      0.00000
      8       8.9781      0.00000

 k-point    23 :       0.5000    0.1667    0.0000
  band No.  band energies     occupation 
      1      -4.6162      2.00000
      2      -1.8935      2.00000
      3       1.7084      2.00000
      4       2.6208      2.00000
      5       6.0185      0.00000
      6       7.7799      0.00000
      7       8.5427      0.00000
      8      10.0569      0.00000

 k-point    24 :      -0.4167    0.1667    0.0000
  band No.  band energies     occupation 
      1      -4.5316      2.00000
      2      -2.0156      2.00000
      3       1.5398      2.00000
      4       2.7685      2.00000
      5       6.0752      0.00000
      6       7.8186      0.00000
      7       8.3492      0.00000
      8      11.3322      0.00000

 k-point    25 :      -0.3333    0.1667    0.0000
  band No.  band energies     occupation 
      1      -4.9199      2.00000
      2      -1.4125      2.00000
      3       1.5203      2.00000
      4       3.0110      2.00000
      5       6.2187      0.00000
      6       7.9270      0.00000
      7       8.1580      0.00000
      8      10.5320      0.00000

 k-point    26 :      -0.2500    0.1667    0.0000
  band No.  band energies     occupation 
      1      -5.4294      2.00000
      2      -0.4744      2.00000
      3       1.6895      2.00000
      4       3.3158      2.00000
      5       6.4081      0.00000
      6       7.8748      0.00000
      7       7.9863      0.00000
      8       9.4815      0.00000

 k-point    27 :      -0.1667    0.1667    0.0000
  band No.  band energies     occupation 
      1      -5.8735      2.00000
      2       0.4937      2.00000
      3       2.1409      2.00000
      4       3.6184      2.00000
      5       6.5024      0.00000
      6       7.4546      0.00000
      7       7.6414      0.00000
      8       9.0489      0.00000

 k-point    28 :       0.2500    0.2500    0.0000
  band No.  band energies     occupation 
      1      -5.7575      2.00000
      2       0.5296      2.00000
      3       2.5508      2.00000
      4       2.5508      2.00000
      5       5.3907      0.00000
      6       7.0830      0.00000
      7       9.2796      0.00000
      8       9.2796      0.00000

 k-point    29 :       0.3333    0.2500    0.0000
  band No.  band energies     occupation 
      1      -5.3888      2.00000
      2      -0.2460      2.00000
      3       2.1574      2.00000
      4       2.3378      2.00000
      5       5.4650      0.00000
      6       6.8596      0.00000
      7       9.4617      0.00000
      8       9.7411      0.00000

 k-point    30 :       0.4167    0.2500    0.0000
  band No.  band energies     occupation 
      1      -4.9095      2.00000
      2      -1.0984      2.00000
      3       1.6242      2.00000
      4       2.2411      2.00000
      5       5.6734      0.00000
      6       7.2549      0.00000
      7       9.2857      0.00000
      8       9.8055      0.00000

 k-point    31 :       0.5000    0.2500    0.0000
  band No.  band energies     occupation 
      1      -4.4054      2.00000
      2      -1.8455      2.00000
      3       1.1603      2.00000
      4       2.2679      2.00000
[...]
      8      10.9616      0.00000

 k-point    37 :       0.5000    0.3333    0.0000
  band No.  band energies     occupation 
      1      -4.0925      2.00000
      2      -2.1003      2.00000
      3       1.1363      2.00000
      4       1.9756      2.00000
      5       5.3999      0.00000
      6       6.8183      0.00000
      7      10.6105      0.00000
      8      10.8832      0.00000

 k-point    38 :      -0.4167    0.3333    0.0000
  band No.  band energies     occupation 
      1      -3.7320      2.00000
      2      -2.4914      2.00000
      3       0.6765      2.00000
      4       2.1024      2.00000
      5       5.5415      0.00000
      6       8.0755      0.00000
      7      10.4579      0.00000
      8      10.5606      0.00000

 k-point    39 :      -0.3333    0.3333    0.0000
  band No.  band energies     occupation 
      1      -3.9661      2.00000
      2      -2.2363      2.00000
      3       0.5129      2.00000
      4       2.3423      2.00000
      5       5.7863      0.00000
      6       9.5923      0.00000
      7       9.9584      0.00000
      8      10.3813      0.00000

 k-point    40 :       0.4167    0.4167    0.0000
  band No.  band energies     occupation 
      1      -4.1895      2.00000
      2      -2.0170      2.00000
      3       1.8179      2.00000
      4       1.8179      2.00000
      5       4.9682      0.00000
      6       5.5592      0.00000
      7      11.8808      0.00000
      8      11.8808      0.00000

 k-point    41 :       0.5000    0.4167    0.0000
  band No.  band energies     occupation 
      1      -3.6752      2.00000
      2      -2.6050      2.00000
      3       1.4873      2.00000
      4       1.7877      2.00000
      5       5.1645      0.00000
      6       5.6551      0.00000
      7      12.0643      0.00000
      8      12.1104      0.00000

 k-point    42 :      -0.4167    0.4167    0.0000
  band No.  band energies     occupation 
      1      -3.3246      2.00000
      2      -2.9326      2.00000
      3       0.9720      2.00000
      4       1.8854      2.00000
      5       5.3025      0.00000
      6       6.6614      0.00000
      7      11.6289      0.00000
      8      11.7688      0.00000

 k-point    43 :       0.5000    0.5000    0.0000
  band No.  band energies     occupation 
      1      -3.1657      2.00000
      2      -3.1657      2.00000
      3       1.7233      2.00000
      4       1.7233      2.00000
      5       5.1253      0.00000
      6       5.1253      0.00000
      7      12.7230      0.00000
      8      12.7230      0.00000

 k-point    44 :       0.2500    0.1667    0.0833
  band No.  band energies     occupation 
      1      -6.1663      2.00000
      2       1.3589      2.00000
      3       2.7873      2.00000
      4       3.4919      2.00000
      5       6.3924      0.00000
      6       6.8252      0.00000
      7       7.9146      0.00000
      8       8.5295      0.00000

 k-point    45 :       0.3333    0.1667    0.0833
  band No.  band energies     occupation 
      1      -5.7989      2.00000
      2       0.3002      2.00000
      3       2.3049      2.00000
      4       3.2652      2.00000
      5       6.4816      0.00000
      6       7.0438      0.00000
      7       8.3104      0.00000
      8       8.8046      0.00000

 k-point    46 :       0.4167    0.1667    0.0833
  band No.  band energies     occupation 
      1      -5.3213      2.00000
      2      -0.7825      2.00000
      3       2.0295      2.00000
      4       2.9999      2.00000
      5       6.3342      0.00000
      6       7.3089      0.00000
      7       8.4028      0.00000
      8       9.3634      0.00000

 k-point    47 :       0.5000    0.1667    0.0833
  band No.  band energies     occupation 
      1      -4.8216      2.00000
      2      -1.6745      2.00000
      3       1.8885      2.00000
      4       2.8041      2.00000
      5       6.2086      0.00000
      6       7.3339      0.00000
      7       8.3734      0.00000
      8      10.3717      0.00000

 k-point    48 :      -0.4167    0.1667    0.0833
  band No.  band energies     occupation 
      1      -4.5643      2.00000
      2      -2.0663      2.00000
      3       1.8457      2.00000
      4       2.7326      2.00000
      5       6.1634      0.00000
      6       7.3151      0.00000
      7       8.3483      0.00000
      8      11.4008      0.00000

 k-point    49 :       0.3333    0.2500    0.0833
  band No.  band energies     occupation 
      1      -5.6658      2.00000
      2       0.2317      2.00000
      3       2.1987      2.00000
      4       2.7445      2.00000
      5       5.9387      0.00000
      6       7.2593      0.00000
      7       8.5807      0.00000
      8       9.1848      0.00000

 k-point    50 :       0.4167    0.2500    0.0833
  band No.  band energies     occupation 
      1      -5.2204      2.00000
      2      -0.6531      2.00000
      3       1.7241      2.00000
      4       2.5172      2.00000
      5       6.2208      0.00000
      6       7.4885      0.00000
      7       8.3829      0.00000
      8       9.5623      0.00000

 k-point    51 :       0.5000    0.2500    0.0833
  band No.  band energies     occupation 
      1      -4.7089      2.00000
      2      -1.5100      2.00000
      3       1.3876      2.00000
      4       2.3535      2.00000
      5       6.3060      0.00000
      6       7.8961      0.00000
      7       8.6273      0.00000
      8       9.6069      0.00000

 k-point    52 :      -0.4167    0.2500    0.0833
  band No.  band energies     occupation 
      1      -4.3226      2.00000
      2      -2.0638      2.00000
      3       1.1690      2.00000
      4       2.3393      2.00000
      5       6.3778      0.00000
      6       7.7763      0.00000
      7       9.3985      0.00000
      8       9.9611      0.00000

 k-point    53 :      -0.3333    0.2500    0.0833
  band No.  band energies     occupation 
      1      -4.4280      2.00000
      2      -1.9174      2.00000
      3       1.0862      2.00000
      4       2.4764      2.00000
      5       6.5289      0.00000
      6       7.6719      0.00000
      7       9.3206      0.00000
      8      10.3161      0.00000

 k-point    54 :      -0.2500    0.2500    0.0833
  band No.  band energies     occupation 
      1      -4.8983      2.00000
      2      -1.2187      2.00000
      3       1.1883      2.00000
      4       2.7305      2.00000
      5       6.7413      0.00000
      6       7.5663      0.00000
      7       8.9197      0.00000
      8       9.4657      0.00000

 k-point    55 :      -0.1667    0.2500    0.0833
  band No.  band energies     occupation 
      1      -5.3957      2.00000
      2      -0.3962      2.00000
      3       1.5662      2.00000
      4       3.0361      2.00000
      5       6.9239      0.00000
      6       7.1521      0.00000
      7       8.6010      0.00000
      8       8.9485      0.00000

 k-point    56 :       0.4167    0.3333    0.0833
  band No.  band energies     occupation 
      1      -4.9811      2.00000
      2      -0.9154      2.00000
      3       1.7661      2.00000
      4       2.1175      2.00000
      5       5.6197      0.00000
      6       6.6380      0.00000
      7       9.5153      0.00000
      8      10.5364      0.00000

 k-point    57 :       0.5000    0.3333    0.0833
  band No.  band energies     occupation 
      1      -4.4788      2.00000
      2      -1.6260      2.00000
      3       1.2867      2.00000
      4       1.9460      2.00000
      5       5.9298      0.00000
      6       7.0687      0.00000
      7       9.2726      0.00000
      8      10.8613      0.00000

 k-point    58 :      -0.4167    0.3333    0.0833
  band No.  band energies     occupation 
      1      -4.0083      2.00000
      2      -2.2059      2.00000
      3       0.8617      2.00000
      4       1.9499      2.00000
      5       6.0628      0.00000
      6       8.2071      0.00000
      7       9.0183      0.00000
      8      10.7521      0.00000

 k-point    59 :      -0.3333    0.3333    0.0833
  band No.  band energies     occupation 
      1      -3.9638      2.00000
      2      -2.2519      2.00000
      3       0.6344      2.00000
      4       2.1103      2.00000
      5       6.2564      0.00000
      6       8.8044      0.00000
      7       9.6484      0.00000
      8      10.0750      0.00000

 k-point    60 :      -0.2500    0.3333    0.0833
  band No.  band energies     occupation 
      1      -4.3966      2.00000
      2      -1.7572      2.00000
      3       0.7106      2.00000
      4       2.3910      2.00000
      5       6.5336      0.00000
      6       8.4200      0.00000
      7       9.1220      0.00000
      8      10.2911      0.00000

 k-point    61 :       0.5000    0.4167    0.0833
  band No.  band energies     occupation 
      1      -4.1307      2.00000
      2      -2.0551      2.00000
      3       1.5272      2.00000
      4       1.6966      2.00000
      5       5.5028      0.00000
      6       6.0098      0.00000
      7      10.7254      0.00000
      8      11.8444      0.00000

 k-point    62 :      -0.4167    0.4167    0.0833
  band No.  band energies     occupation 
      1      -3.6155      2.00000
      2      -2.6051      2.00000
      3       1.0455      2.00000
      4       1.6584      2.00000
      5       5.7760      0.00000
      6       6.7469      0.00000
      7      10.4735      0.00000
      8      11.6082      0.00000

 k-point    63 :      -0.3333    0.4167    0.0833
  band No.  band energies     occupation 
      1      -3.5194      2.00000
      2      -2.6785      2.00000
      3       0.6557      2.00000
      4       1.8204      2.00000
      5       5.9657      0.00000
      6       8.0867      0.00000
      7      10.0940      0.00000
      8      10.3949      0.00000

 k-point    64 :      -0.4167    0.5000    0.0833
  band No.  band energies     occupation 
      1      -3.1426      2.00000
      2      -3.1426      2.00000
      3       1.5006      2.00000
      4       1.5006      2.00000
      5       5.6259      0.00000
      6       5.6259      0.00000
      7      11.9329      0.00000
      8      11.9329      0.00000

 k-point    65 :       0.5000    0.3333    0.1667
  band No.  band energies     occupation 
      1      -4.7509      2.00000
      2      -1.2830      2.00000
      3       1.1769      2.00000
      4       2.2243      2.00000
      5       6.8650      0.00000
      6       7.5216      0.00000
      7       8.0923      0.00000
      8      10.4284      0.00000

 k-point    66 :      -0.4167    0.3333    0.1667
  band No.  band energies     occupation 
      1      -4.2427      2.00000
      2      -1.9295      2.00000
      3       0.8800      2.00000
      4       1.9599      2.00000
      5       7.1736      0.00000
      6       7.6487      0.00000
      7       8.5104      0.00000
      8      10.7654      0.00000

 k-point    67 :      -0.3333    0.3333    0.1667
  band No.  band energies     occupation 
      1      -3.9614      2.00000
      2      -2.2671      2.00000
      3       0.7916      2.00000
      4       1.8582      2.00000
      5       7.2511      0.00000
      6       7.5151      0.00000
      7       9.7591      0.00000
      8       9.8987      0.00000

 k-point    68 :      -0.4167    0.4167    0.1667
  band No.  band energies     occupation 
      1      -3.9687      2.00000
      2      -2.1842      2.00000
      3       1.0225      2.00000
      4       1.5466      2.00000
      5       6.7450      0.00000
      6       7.1448      0.00000
      7       8.9699      0.00000
      8      11.3882      0.00000

 k-point    69 :      -0.3333    0.4167    0.1667
  band No.  band energies     occupation 
      1      -3.5490      2.00000
      2      -2.6122      2.00000
      3       0.7829      2.00000
      4       1.4204      2.00000
      5       7.0562      0.00000
      6       8.2432      0.00000
      7       8.6865      0.00000
      8       9.9656      0.00000

 k-point    70 :      -0.2500    0.4167    0.1667
  band No.  band energies     occupation 
      1      -3.7456      2.00000
      2      -2.4082      2.00000
      3       0.6811      2.00000
      4       1.6010      2.00000
      5       7.3027      0.00000
      6       8.3295      0.00000
      7       8.6798      0.00000
      8       9.7524      0.00000

 k-point    71 :      -0.3333    0.5000    0.1667
  band No.  band energies     occupation 
      1      -3.0944      2.00000
      2      -3.0944      2.00000
      3       1.1382      2.00000
      4       1.1382      2.00000
      5       6.8326      0.00000
      6       6.8326      0.00000
      7      10.1898      0.00000
      8      10.1898      0.00000

 k-point    72 :      -0.2500    0.5000    0.2500
  band No.  band energies     occupation 
      1      -3.0691      2.00000
      2      -3.0691      2.00000
      3       0.9826      2.00000
      4       0.9826      2.00000
      5       8.3806      0.00000
      6       8.3806      0.00000
      7       8.4415      0.00000
      8       8.4415      0.00000


--------------------------------------------------------------------------------------------------------


 soft charge-density along one line, spin component           1
         0         1         2         3         4         5         6         7         8         9
 total charge-density along one line
 
 pseudopotential strength for first ion, spin component:           1
 18.612   0.001   0.000   0.000   0.000  -0.000  -0.000  -0.000
  0.001   0.006  -0.000  -0.000  -0.000   0.000   0.000   0.000
  0.000  -0.000   4.199  -0.000  -0.000  -0.003   0.000   0.000
  0.000  -0.000  -0.000   4.199  -0.000   0.000  -0.003   0.000
  0.000  -0.000  -0.000  -0.000   4.199   0.000   0.000  -0.003
 -0.000   0.000  -0.003   0.000   0.000   0.005  -0.000  -0.000
 -0.000   0.000   0.000  -0.003   0.000  -0.000   0.005  -0.000
 -0.000   0.000   0.000   0.000  -0.003  -0.000  -0.000   0.005
 total augmentation occupancy for first ion, spin component:           1
  1.540  -0.536   0.000   0.000   0.000   0.000   0.000   0.000
 -0.536   0.493   0.000  -0.000   0.000   0.000   0.000  -0.000
  0.000   0.000   0.914   0.000   0.000  -0.429   0.000   0.000
  0.000   0.000   0.000   0.914  -0.000   0.000  -0.429   0.000
  0.000   0.000   0.000   0.000   0.914   0.000   0.000  -0.429
  0.000   0.000  -0.429   0.000   0.000   0.241  -0.000  -0.000
  0.000  -0.000   0.000  -0.429   0.000   0.000   0.241   0.000
  0.000   0.000   0.000   0.000  -0.429  -0.000   0.000   0.241


------------------------ aborting loop because EDIFF is reached ----------------------------------------


    CHARGE:  cpu time    0.02: real time    0.02
    FORLOC:  cpu time    0.00: real time    0.00
    FORNL :  cpu time    0.04: real time    0.04
    STRESS:  cpu time    0.31: real time    0.31
    FORCOR:  cpu time    0.01: real time    0.02
    FORHAR:  cpu time    0.00: real time    0.00
    MIXING:  cpu time    0.00: real time    0.00
    OFIELD:  cpu time    0.00: real time    0.00

  FORCE on cell =-STRESS in cart. coord.  units (eV):
  Direction    XX          YY          ZZ          XY          YZ          ZX
  --------------------------------------------------------------------------------------
  Alpha Z     2.79870     2.79870     2.79870
  Ewald     -71.65497   -71.65497   -71.65497     0.00000     0.00000     0.00000
  Hartree     5.73015     5.73015     5.73015    -0.00000    -0.00000    -0.00000
  E(xc)     -24.38681   -24.38681   -24.38681    -0.00000    -0.00000    -0.00000
  Local     -31.96941   -31.96941   -31.96941     0.00001     0.00001     0.00001
  n-local    76.21942    77.63637    71.99697     1.90385    -1.06543     0.39622
  augment   -11.72080   -11.72080   -11.72080    -0.00001    -0.00001    -0.00001
  Kinetic    55.02784    53.65522    50.01063     3.58079    -0.94344     1.02939
  Fock        0.00000     0.00000     0.00000     0.00000     0.00000     0.00000
  -------------------------------------------------------------------------------------
  Total      -3.02099    -3.02099    -3.02099    -0.00000     0.00000    -0.00000
  in kB    -100.60096  -100.60096  -100.60096    -0.00000     0.00000    -0.00000
  external pressure =     -100.60 kB  Pullay stress =        0.00 kB


 VOLUME and BASIS-vectors are now :
 -----------------------------------------------------------------------------
  energy-cutoff  :      600.00
  volume of cell :       48.11
      direct lattice vectors                 reciprocal lattice vectors
     0.000000000  2.886751346  2.886751346    -0.173205081  0.173205081  0.173205081
     2.886751346  0.000000000  2.886751346     0.173205081 -0.173205081  0.173205081
     2.886751346  2.886751346  0.000000000     0.173205081  0.173205081 -0.173205081

  length of vectors
     4.082482905  4.082482905  4.082482905     0.300000000  0.300000000  0.300000000


 FORCES acting on ions
    electron-ion (+dipol)            ewald-force                    non-local-force                 convergence-correction
 -----------------------------------------------------------------------------------------------
   0.114E-06 0.114E-06 0.902E-07   -.325E-14 -.256E-14 -.235E-14   0.416E-16 0.000E+00 0.867E-17   0.207E-13 0.240E-13 0.181E-13
   -.114E-06 -.114E-06 -.902E-07   0.325E-14 0.272E-14 0.181E-14   -.416E-16 -.694E-17 -.208E-16   -.212E-13 -.196E-13 -.200E-13
 -----------------------------------------------------------------------------------------------
   -.434E-13 0.413E-14 0.505E-13   0.949E-18 0.161E-15 -.537E-15   0.000E+00 -.694E-17 -.121E-16   -.492E-15 0.437E-14 -.189E-14
 
 
 POSITION                                       TOTAL-FORCE (eV/Angst)
 -----------------------------------------------------------------------------------
      0.00000      0.00000      0.00000         0.000000      0.000000      0.000000
      1.44338      1.44338      1.44338        -0.000000     -0.000000     -0.000000
 -----------------------------------------------------------------------------------
    total drift:                               -0.000000      0.000000      0.000000


--------------------------------------------------------------------------------------------------------



  FREE ENERGIE OF THE ION-ELECTRON SYSTEM (eV)
  ---------------------------------------------------
  free  energy   TOTEN  =       -10.58642950 eV

  energy  without entropy=      -10.58642950  energy(sigma->0) =      -10.58642950
 


--------------------------------------------------------------------------------------------------------


    POTLOK:  cpu time    0.02: real time    0.02


--------------------------------------------------------------------------------------------------------


 writing wavefunctions
     LOOP+:  cpu time    6.58: real time    7.18
    4ORBIT:  cpu time    0.00: real time    0.00

 total amount of memory used by VASP on root node    44381. kBytes
========================================================================

   base      :      30000. kBytes
   nonl-proj :       7609. kBytes
   fftplans  :       1025. kBytes
   grid      :       1926. kBytes
   one-center:          6. kBytes
   wavefun   :       3815. kBytes
 
  
  
 General timing and accounting informations for this job:
 ========================================================
  
                  Total CPU time used (sec):        6.936
                            User time (sec):        6.656
                          System time (sec):        0.280
                         Elapsed time (sec):        7.633
  
                   Maximum memory used (kb):       50628.
                   Average memory used (kb):           0.
  
                          Minor page faults:         7677
                          Major page faults:            7
                 Voluntary context switches:          575
