 vasp.5.3.5 31Mar14 (build Jun 01 2017 17:55:53) complex                        
  
 executed on             LinuxIFC date 2020.11.10  15:17:52
 running on    4 total cores
 distrk:  each k-point on    4 cores,    1 groups
 distr:  one band on NCORES_PER_BAND=   1 cores,    4 groups


--------------------------------------------------------------------------------------------------------


 INCAR:
 POTCAR:   PAW_PBE Si 05Jan2001                   
 POTCAR:   PAW_PBE Si 05Jan2001                   
   VRHFIN =Si: s2p2                                                             
   LEXCH  = PE                                                                  
   EATOM  =   103.0669 eV,    7.5752 Ry                                         
                                                                                
   TITEL  = PAW_PBE Si 05Jan2001                                                
   LULTRA =        F    use ultrasoft PP ?                                      
   IUNSCR =        1    unscreen: 0-lin 1-nonlin 2-no                           
   RPACOR =    1.500    partial core radius                                     
   POMASS =   28.085; ZVAL   =    4.000    mass and valenz                      
   RCORE  =    1.900    outmost cutoff radius                                   
   RWIGS  =    2.480; RWIGS  =    1.312    wigner-seitz radius (au A)           
   ENMAX  =  245.345; ENMIN  =  184.009 eV                                      
   ICORE  =        2    local potential                                         
   LCOR   =        T    correct aug charges                                     
   LPAW   =        T    paw PP                                                  
   EAUG   =  322.069                                                            
   DEXC   =    -.007                                                            
   RMAX   =    2.944    core radius for proj-oper                               
   RAUG   =    1.300    factor for augmentation sphere                          
   RDEP   =    1.993    radius for radial grids                                 
   QCUT   =   -4.246; QGAM   =    8.493    optimization parameters              
                                                                                
   Description                                                                  
     l     E      TYP  RCUT    TYP  RCUT                                        
     0   .000     23  1.900                                                     
     0   .000     23  1.900                                                     
     1   .000     23  1.900                                                     
     1   .000     23  1.900                                                     
     2   .000      7  1.900                                                     
  local pseudopotential read in
  partial core-charges read in
  atomic valenz-charges read in
  non local Contribution for L=           0  read in
    real space projection operators read in
  non local Contribution for L=           0  read in
    real space projection operators read in
  non local Contribution for L=           1  read in
    real space projection operators read in
  non local Contribution for L=           1  read in
    real space projection operators read in
    PAW grid and wavefunctions read in
 
   number of l-projection  operators is LMAX  =           4
   number of lm-projection operators is LMMAX =           8
 
 PAW_PBE Si 05Jan2001                   :
 energy of atom  1       EATOM= -103.0669
 kinetic energy error for atom=    0.0003 (will be added to EATOM!!)
 
 
 POSCAR: Si
  positions in direct lattice
  velocities in cartesian coordinates
  No initial velocities read in
 exchange correlation table for  LEXCH =        8
   RHO(1)=    0.500       N(1)  =     2000
   RHO(2)=  100.500       N(2)  =     4000
 


--------------------------------------------------------------------------------------------------------


 ion  position               nearest neighbor table
   1  0.000  0.000  0.000-   2 2.45   2 2.45   2 2.45   2 2.45
   2  0.250  0.250  0.250-   1 2.45   1 2.45   1 2.45   1 2.45
 
  LATTYP: Found a face centered cubic cell.
 ALAT       =     5.6580326381
  
  Lattice vectors:
  
 A1 = (   0.0000000000,   2.8290163190,   2.8290163190)
 A2 = (   2.8290163190,   0.0000000000,   2.8290163190)
 A3 = (   2.8290163190,   2.8290163190,   0.0000000000)


Analysis of symmetry for initial positions (statically):
=====================================================================
 Subroutine PRICEL returns:
 Original cell was already a primitive cell.
 

 Routine SETGRP: Setting up the symmetry group for a 
 face centered cubic supercell.


 Subroutine GETGRP returns: Found 48 space group operations
 (whereof 24 operations were pure point group operations)
 out of a pool of 48 trial point group operations.


The static configuration has the point symmetry T_d .
 The point group associated with its full space group is O_h .


Analysis of symmetry for dynamics (positions and initial velocities):
=====================================================================
 Subroutine PRICEL returns:
 Original cell was already a primitive cell.
 

 Routine SETGRP: Setting up the symmetry group for a 
 face centered cubic supercell.


 Subroutine GETGRP returns: Found 48 space group operations
 (whereof 24 operations were pure point group operations)
 out of a pool of 48 trial point group operations.


The dynamic configuration has the point symmetry T_d .
 The point group associated with its full space group is O_h .


Analysis of constrained symmetry for selective dynamics:
=====================================================================
 Subroutine PRICEL returns:
 Original cell was already a primitive cell.
 

 Routine SETGRP: Setting up the symmetry group for a 
 face centered cubic supercell.


 Subroutine GETGRP returns: Found 48 space group operations
 (whereof 24 operations were pure point group operations)
 out of a pool of 48 trial point group operations.


The constrained configuration has the point symmetry T_d .
 The point group associated with its full space group is O_h .
 
 
 KPOINTS: Gamma centered Monkhorst-Pack           

Automatic generation of k-mesh.
Space group operators:
 irot       det(A)        alpha          n_x          n_y          n_z        tau_x        tau_y        tau_z
    1     1.000000     0.000000     1.000000     0.000000     0.000000     0.000000     0.000000     0.000000
    2     1.000000   120.000000    -0.577350    -0.577350    -0.577350     0.000000     0.000000     0.000000
    3     1.000000   120.000000     0.577350     0.577350     0.577350     0.000000     0.000000     0.000000
    4    -1.000000    90.000000     0.000000     0.000000    -1.000000     0.000000     0.000000     0.000000
    5    -1.000000   180.000000     0.000000     0.707107     0.707107     0.000000     0.000000     0.000000
    6    -1.000000    90.000000     0.000000     1.000000     0.000000     0.000000     0.000000     0.000000
    7     1.000000   180.000000     0.000000     0.000000     1.000000     0.000000     0.000000     0.000000
    8     1.000000   120.000000    -0.577350     0.577350     0.577350     0.000000     0.000000     0.000000
    9     1.000000   120.000000    -0.577350     0.577350    -0.577350     0.000000     0.000000     0.000000
   10    -1.000000    90.000000     0.000000     0.000000     1.000000     0.000000     0.000000     0.000000
   11    -1.000000    90.000000    -1.000000     0.000000     0.000000     0.000000     0.000000     0.000000
   12    -1.000000   180.000000     0.707107     0.000000     0.707107     0.000000     0.000000     0.000000
   13     1.000000   120.000000     0.577350    -0.577350     0.577350     0.000000     0.000000     0.000000
   14     1.000000   120.000000    -0.577350    -0.577350     0.577350     0.000000     0.000000     0.000000
   15     1.000000   180.000000     1.000000     0.000000     0.000000     0.000000     0.000000     0.000000
   16    -1.000000    90.000000     0.000000    -1.000000     0.000000     0.000000     0.000000     0.000000
   17    -1.000000   180.000000     0.707107     0.707107     0.000000     0.000000     0.000000     0.000000
   18    -1.000000    90.000000     1.000000     0.000000     0.000000     0.000000     0.000000     0.000000
   19     1.000000   120.000000     0.577350    -0.577350    -0.577350     0.000000     0.000000     0.000000
   20     1.000000   180.000000     0.000000     1.000000     0.000000     0.000000     0.000000     0.000000
   21     1.000000   120.000000     0.577350     0.577350    -0.577350     0.000000     0.000000     0.000000
   22    -1.000000   180.000000     0.000000    -0.707107     0.707107     0.000000     0.000000     0.000000
   23    -1.000000   180.000000     0.707107    -0.707107     0.000000     0.000000     0.000000     0.000000
   24    -1.000000   180.000000     0.707107     0.000000    -0.707107     0.000000     0.000000     0.000000
   25    -1.000000     0.000000     1.000000     0.000000     0.000000     0.250000     0.250000     0.250000
   26    -1.000000   120.000000    -0.577350    -0.577350    -0.577350     0.250000     0.250000     0.250000
   27    -1.000000   120.000000     0.577350     0.577350     0.577350     0.250000     0.250000     0.250000
   28     1.000000    90.000000     0.000000     0.000000    -1.000000     0.250000     0.250000     0.250000
   29     1.000000   180.000000     0.000000     0.707107     0.707107     0.250000     0.250000     0.250000
   30     1.000000    90.000000     0.000000     1.000000     0.000000     0.250000     0.250000     0.250000
   31    -1.000000   180.000000     0.000000     0.000000     1.000000     0.250000     0.250000     0.250000
   32    -1.000000   120.000000    -0.577350     0.577350     0.577350     0.250000     0.250000     0.250000
   33    -1.000000   120.000000    -0.577350     0.577350    -0.577350     0.250000     0.250000     0.250000
   34     1.000000    90.000000     0.000000     0.000000     1.000000     0.250000     0.250000     0.250000
   35     1.000000    90.000000    -1.000000     0.000000     0.000000     0.250000     0.250000     0.250000
   36     1.000000   180.000000     0.707107     0.000000     0.707107     0.250000     0.250000     0.250000
   37    -1.000000   120.000000     0.577350    -0.577350     0.577350     0.250000     0.250000     0.250000
   38    -1.000000   120.000000    -0.577350    -0.577350     0.577350     0.250000     0.250000     0.250000
   39    -1.000000   180.000000     1.000000     0.000000     0.000000     0.250000     0.250000     0.250000
   40     1.000000    90.000000     0.000000    -1.000000     0.000000     0.250000     0.250000     0.250000
   41     1.000000   180.000000     0.707107     0.707107     0.000000     0.250000     0.250000     0.250000
   42     1.000000    90.000000     1.000000     0.000000     0.000000     0.250000     0.250000     0.250000
   43    -1.000000   120.000000     0.577350    -0.577350    -0.577350     0.250000     0.250000     0.250000
   44    -1.000000   180.000000     0.000000     1.000000     0.000000     0.250000     0.250000     0.250000
   45    -1.000000   120.000000     0.577350     0.577350    -0.577350     0.250000     0.250000     0.250000
   46     1.000000   180.000000     0.000000    -0.707107     0.707107     0.250000     0.250000     0.250000
   47     1.000000   180.000000     0.707107    -0.707107     0.000000     0.250000     0.250000     0.250000
   48     1.000000   180.000000     0.707107     0.000000    -0.707107     0.250000     0.250000     0.250000
 
 Subroutine IBZKPT returns following result:
 ===========================================
 
 Found     72 irreducible k-points:
 
 Following reciprocal coordinates:
            Coordinates               Weight
  0.000000  0.000000  0.000000      1.000000
  0.083333  0.000000  0.000000      8.000000
  0.166667  0.000000  0.000000      8.000000
  0.250000  0.000000  0.000000      8.000000
  0.333333  0.000000  0.000000      8.000000
  0.416667  0.000000  0.000000      8.000000
  0.500000  0.000000  0.000000      4.000000
  0.083333  0.083333  0.000000      6.000000
  0.166667  0.083333  0.000000     24.000000
  0.250000  0.083333  0.000000     24.000000
  0.333333  0.083333  0.000000     24.000000
  0.416667  0.083333  0.000000     24.000000
  0.500000  0.083333  0.000000     24.000000
 -0.416667  0.083333  0.000000     24.000000
 -0.333333  0.083333  0.000000     24.000000
 -0.250000  0.083333  0.000000     24.000000
 -0.166667  0.083333  0.000000     24.000000
 -0.083333  0.083333  0.000000     12.000000
  0.166667  0.166667  0.000000      6.000000
  0.250000  0.166667  0.000000     24.000000
  0.333333  0.166667  0.000000     24.000000
  0.416667  0.166667  0.000000     24.000000
  0.500000  0.166667  0.000000     24.000000
 -0.416667  0.166667  0.000000     24.000000
 -0.333333  0.166667  0.000000     24.000000
 -0.250000  0.166667  0.000000     24.000000
 -0.166667  0.166667  0.000000     12.000000
  0.250000  0.250000  0.000000      6.000000
  0.333333  0.250000  0.000000     24.000000
  0.416667  0.250000  0.000000     24.000000
  0.500000  0.250000  0.000000     24.000000
 -0.416667  0.250000  0.000000     24.000000
 -0.333333  0.250000  0.000000     24.000000
 -0.250000  0.250000  0.000000     12.000000
  0.333333  0.333333  0.000000      6.000000
  0.416667  0.333333  0.000000     24.000000
  0.500000  0.333333  0.000000     24.000000
 -0.416667  0.333333  0.000000     24.000000
 -0.333333  0.333333  0.000000     12.000000
  0.416667  0.416667  0.000000      6.000000
  0.500000  0.416667  0.000000     24.000000
 -0.416667  0.416667  0.000000     12.000000
  0.500000  0.500000  0.000000      3.000000
  0.250000  0.166667  0.083333     24.000000
  0.333333  0.166667  0.083333     48.000000
  0.416667  0.166667  0.083333     48.000000
  0.500000  0.166667  0.083333     48.000000
 -0.416667  0.166667  0.083333     24.000000
  0.333333  0.250000  0.083333     24.000000
  0.416667  0.250000  0.083333     48.000000
  0.500000  0.250000  0.083333     48.000000
 -0.416667  0.250000  0.083333     48.000000
 -0.333333  0.250000  0.083333     48.000000
 -0.250000  0.250000  0.083333     48.000000
 -0.166667  0.250000  0.083333     24.000000
  0.416667  0.333333  0.083333     24.000000
  0.500000  0.333333  0.083333     48.000000
 -0.416667  0.333333  0.083333     48.000000
 -0.333333  0.333333  0.083333     48.000000
 -0.250000  0.333333  0.083333     24.000000
  0.500000  0.416667  0.083333     24.000000
 -0.416667  0.416667  0.083333     48.000000
 -0.333333  0.416667  0.083333     24.000000
 -0.416667  0.500000  0.083333     12.000000
  0.500000  0.333333  0.166667     24.000000
 -0.416667  0.333333  0.166667     48.000000
 -0.333333  0.333333  0.166667     24.000000
 -0.416667  0.416667  0.166667     24.000000
 -0.333333  0.416667  0.166667     48.000000
 -0.250000  0.416667  0.166667     24.000000
 -0.333333  0.500000  0.166667     12.000000
 -0.250000  0.500000  0.250000      6.000000
 
 Following cartesian coordinates:
            Coordinates               Weight
  0.000000  0.000000  0.000000      1.000000
 -0.083333  0.083333  0.083333      8.000000
 -0.166667  0.166667  0.166667      8.000000
 -0.250000  0.250000  0.250000      8.000000
 -0.333333  0.333333  0.333333      8.000000
 -0.416667  0.416667  0.416667      8.000000
 -0.500000  0.500000  0.500000      4.000000
  0.000000  0.000000  0.166667      6.000000
 -0.083333  0.083333  0.250000     24.000000
 -0.166667  0.166667  0.333333     24.000000
 -0.250000  0.250000  0.416667     24.000000
 -0.333333  0.333333  0.500000     24.000000
 -0.416667  0.416667  0.583333     24.000000
  0.500000 -0.500000 -0.333333     24.000000
  0.416667 -0.416667 -0.250000     24.000000
  0.333333 -0.333333 -0.166667     24.000000
  0.250000 -0.250000 -0.083333     24.000000
  0.166667 -0.166667  0.000000     12.000000
  0.000000  0.000000  0.333333      6.000000
 -0.083333  0.083333  0.416667     24.000000
 -0.166667  0.166667  0.500000     24.000000
 -0.250000  0.250000  0.583333     24.000000
 -0.333333  0.333333  0.666667     24.000000
  0.583333 -0.583333 -0.250000     24.000000
  0.500000 -0.500000 -0.166667     24.000000
  0.416667 -0.416667 -0.083333     24.000000
  0.333333 -0.333333  0.000000     12.000000
  0.000000  0.000000  0.500000      6.000000
 -0.083333  0.083333  0.583333     24.000000
 -0.166667  0.166667  0.666667     24.000000
 -0.250000  0.250000  0.750000     24.000000
  0.666667 -0.666667 -0.166667     24.000000
  0.583333 -0.583333 -0.083333     24.000000
  0.500000 -0.500000  0.000000     12.000000
  0.000000  0.000000  0.666667      6.000000
 -0.083333  0.083333  0.750000     24.000000
 -0.166667  0.166667  0.833333     24.000000
  0.750000 -0.750000 -0.083333     24.000000
  0.666667 -0.666667  0.000000     12.000000
  0.000000  0.000000  0.833333      6.000000
 -0.083333  0.083333  0.916667     24.000000
  0.833333 -0.833333  0.000000     12.000000
  0.000000  0.000000  1.000000      3.000000
  0.000000  0.166667  0.333333     24.000000
 -0.083333  0.250000  0.416667     48.000000
 -0.166667  0.333333  0.500000     48.000000
 -0.250000  0.416667  0.583333     48.000000
  0.666667 -0.500000 -0.333333     24.000000
  0.000000  0.166667  0.500000     24.000000
 -0.083333  0.250000  0.583333     48.000000
 -0.166667  0.333333  0.666667     48.000000
  0.750000 -0.583333 -0.250000     48.000000
  0.666667 -0.500000 -0.166667     48.000000
  0.583333 -0.416667 -0.083333     48.000000
  0.500000 -0.333333  0.000000     24.000000
 -0.000000  0.166667  0.666667     24.000000
 -0.083333  0.250000  0.750000     48.000000
  0.833333 -0.666667 -0.166667     48.000000
  0.750000 -0.583333 -0.083333     48.000000
  0.666667 -0.500000  0.000000     24.000000
  0.000000  0.166667  0.833333     24.000000
  0.916667 -0.750000 -0.083333     48.000000
  0.833333 -0.666667  0.000000     24.000000
  1.000000 -0.833333  0.000000     12.000000
  0.000000  0.333333  0.666667     24.000000
  0.916667 -0.583333 -0.250000     48.000000
  0.833333 -0.500000 -0.166667     24.000000
  1.000000 -0.666667 -0.166667     24.000000
  0.916667 -0.583333 -0.083333     48.000000
  0.833333 -0.500000  0.000000     24.000000
  1.000000 -0.666667  0.000000     12.000000
  1.000000 -0.500000  0.000000      6.000000
 


--------------------------------------------------------------------------------------------------------




 Dimension of arrays:
   k-points           NKPTS =     72   k-points in BZ     NKDIM =     72   number of bands    NBANDS=      8
   number of dos      NEDOS =    301   number of ions     NIONS =      2
   non local maximal  LDIM  =      4   non local SUM 2l+1 LMDIM =      8
   total plane-waves  NPLWV =  13824
   max r-space proj   IRMAX =      1   max aug-charges    IRDMAX=  10405
   dimension x,y,z NGX =    24 NGY =   24 NGZ =   24
   dimension x,y,z NGXF=    48 NGYF=   48 NGZF=   48
   support grid    NGXF=    48 NGYF=   48 NGZF=   48
   ions per type =               2
 NGX,Y,Z   is equivalent  to a cutoff of   9.97,  9.97,  9.97 a.u.
 NGXF,Y,Z  is equivalent  to a cutoff of  19.95, 19.95, 19.95 a.u.


 I would recommend the setting:
   dimension x,y,z NGX =    24 NGY =   24 NGZ =   24
 SYSTEM =  Si
 POSCAR =  Si

 Startparameter for this run:
   NWRITE =      2    write-flag & timer
   PREC   = normal    normal or accurate (medium, high low for compatibility)
   ISTART =      0    job   : 0-new  1-cont  2-samecut
   ICHARG =      2    charge: 1-file 2-atom 10-const
   ISPIN  =      1    spin polarized calculation?
   LNONCOLLINEAR =      F non collinear calculations
   LSORBIT =      F    spin-orbit coupling
   INIWAV =      1    electr: 0-lowe 1-rand  2-diag
   LASPH  =      F    aspherical Exc in radial PAW
   METAGGA=      F    non-selfconsistent MetaGGA calc.

 Electronic Relaxation 1
   ENCUT  =  600.0 eV  44.10 Ry    6.64 a.u.   7.99  7.99  7.99*2*pi/ulx,y,z
   ENINI  =  600.0     initial cutoff
   ENAUG  = 1200.0 eV  augmentation charge cutoff
   NELM   =    500;   NELMIN=  2; NELMDL= -5     # of ELM steps 
   EDIFF  = 0.1E-09   stopping-criterion for ELM
   LREAL  =      F    real-space projection
   NLSPLINE    = F    spline interpolate recip. space projectors
   LCOMPAT=      F    compatible to vasp.4.4
   GGA_COMPAT  = T    GGA compatible to vasp.4.4-vasp.4.6
   LMAXPAW     = -100 max onsite density
   LMAXMIX     =    2 max onsite mixed and CHGCAR
   VOSKOWN=      0    Vosko Wilk Nusair interpolation
   ROPT   =    0.00000
 Ionic relaxation
   EDIFFG = 0.1E-08   stopping-criterion for IOM
   NSW    =      0    number of steps for IOM
   NBLOCK =      1;   KBLOCK =      1    inner block; outer block 
   IBRION =     -1    ionic relax: 0-MD 1-quasi-New 2-CG
   NFREE  =      0    steps in history (QN), initial steepest desc. (CG)
   ISIF   =      2    stress and relaxation
   IWAVPR =     10    prediction:  0-non 1-charg 2-wave 3-comb
   ISYM   =      2    0-nonsym 1-usesym 2-fastsym
   LCORR  =      T    Harris-Foulkes like correction to forces

   POTIM  = 0.5000    time-step for ionic-motion
   TEIN   =    0.0    initial temperature
   TEBEG  =    0.0;   TEEND  =   0.0 temperature during run
   SMASS  =  -3.00    Nose mass-parameter (am)
   estimated Nose-frequenzy (Omega)   =  0.10E-29 period in steps =****** mass=  -0.366E-27a.u.
   SCALEE = 1.0000    scale energy and forces
   NPACO  =    256;   APACO  = 16.0  distance and # of slots for P.C.
   PSTRESS=    0.0 pullay stress

  Mass of Ions in am
   POMASS =  28.09
  Ionic Valenz
   ZVAL   =   4.00
  Atomic Wigner-Seitz radii
   RWIGS  =  -1.00
  virtual crystal weights 
   VCA    =   1.00
   NELECT =       8.0000    total number of electrons
   NUPDOWN=      -1.0000    fix difference up-down

 DOS related values:
   EMIN   =  10.00;   EMAX   =-10.00  energy-range for DOS
   EFERMI =   0.00
   ISMEAR =    -1;   SIGMA  =   0.03  broadening in eV -4-tet -1-fermi 0-gaus

 Electronic relaxation 2 (details)
   IALGO  =     38    algorithm
   LDIAG  =      T    sub-space diagonalisation (order eigenvalues)
   LSUBROT=      F    optimize rotation matrix (better conditioning)
   TURBO    =      0    0=normal 1=particle mesh
   IRESTART =      0    0=no restart 2=restart with 2 vectors
   NREBOOT  =      0    no. of reboots
   NMIN     =      0    reboot dimension
   EREF     =   0.00    reference energy to select bands
   IMIX   =      4    mixing-type and parameters
     AMIX     =   0.40;   BMIX     =  1.00
     AMIX_MAG =   1.60;   BMIX_MAG =  1.00
     AMIN     =   0.10
     WC   =   100.;   INIMIX=   1;  MIXPRE=   1;  MAXMIX= -45

 Intra band minimization:
   WEIMIN = 0.0000     energy-eigenvalue tresh-hold
   EBREAK =  0.31E-11  absolut break condition
   DEPER  =   0.30     relativ break condition  

   TIME   =   0.40     timestep for ELM

  volume/ion in A,a.u.               =      22.64       152.79
  Fermi-wavevector in a.u.,A,eV,Ry     =   0.918599  1.735901 11.480928  0.843824
  Thomas-Fermi vector in A             =   2.043699
 
 Write flags
   LWAVE  =      T    write WAVECAR
   LCHARG =      T    write CHGCAR
   LVTOT  =      F    write LOCPOT, total local potential
   LVHAR  =      F    write LOCPOT, Hartree potential only
   LELF   =      F    write electronic localiz. function (ELF)
   LORBIT =      0    0 simple, 1 ext, 2 COOP (PROOUT)


 Dipole corrections
   LMONO  =      F    monopole corrections only (constant potential shift)
   LDIPOL =      F    correct potential (dipole corrections)
   IDIPOL =      0    1-x, 2-y, 3-z, 4-all directions 
   EPSILON=  1.0000000 bulk dielectric constant

 Exchange correlation treatment:
   GGA     =    PE    GGA type
   LEXCH   =     8    internal setting for exchange type
   VOSKOWN=      0    Vosko Wilk Nusair interpolation
   LHFCALC =     F    Hartree Fock is set to
   LHFONE  =     F    Hartree Fock one center treatment
   AEXX    =    0.0000 exact exchange contribution

 Linear response parameters
   LEPSILON=     F    determine dielectric tensor
   LRPA    =     F    only Hartree local field effects (RPA)
   LNABLA  =     F    use nabla operator in PAW spheres
   LVEL    =     F    velocity operator in full k-point grid
   LINTERFAST=   F  fast interpolation
   KINTER  =     0    interpolate to denser k-point grid
   CSHIFT  =0.1000    complex shift for real part using Kramers Kronig
   OMEGAMAX=  -1.0    maximum frequency
   DEG_THRESHOLD= 0.2000000E-02 threshold for treating states as degnerate
   RTIME   =    0.100 relaxation time in fs

 Orbital magnetization related:
   ORBITALMAG=     F  switch on orbital magnetization
   LCHIMAG   =     F  perturbation theory with respect to B field
   DQ        =  0.001000  dq finite difference perturbation B field



--------------------------------------------------------------------------------------------------------


 Static calculation
 charge density and potential will be updated during run
 non-spin polarized calculation
 Variant of blocked Davidson
 Davidson routine will perform the subspace rotation
 perform sub-space diagonalisation
    after iterative eigenvector-optimisation
 modified Broyden-mixing scheme, WC =      100.0
 initial mixing is a Kerker type mixing with AMIX =  0.4000 and BMIX =      1.0000
 Hartree-type preconditioning will be used
 using additional bands            4
 reciprocal scheme for non local part
 use partial core corrections
 calculate Harris-corrections to forces 
   (improved forces if not selfconsistent)
 use gradient corrections 
 use of overlap-Matrix (Vanderbilt PP)
 Fermi-smearing in eV        SIGMA  =   0.03


--------------------------------------------------------------------------------------------------------


  energy-cutoff  :      600.00
  volume of cell :       45.28
      direct lattice vectors                 reciprocal lattice vectors
     0.000000000  2.829016319  2.829016319    -0.176739878  0.176739878  0.176739878
     2.829016319  0.000000000  2.829016319     0.176739878 -0.176739878  0.176739878
     2.829016319  2.829016319  0.000000000     0.176739878  0.176739878 -0.176739878

  length of vectors
     4.000833247  4.000833247  4.000833247     0.306122449  0.306122449  0.306122449


 
 k-points in units of 2pi/SCALE and weight: Gamma centered Monkhorst-Pack           
   0.00000000  0.00000000  0.00000000       0.001
  -0.08333333  0.08333333  0.08333333       0.005
  -0.16666667  0.16666667  0.16666667       0.005
  -0.25000000  0.25000000  0.25000000       0.005
  -0.33333333  0.33333333  0.33333333       0.005
  -0.41666667  0.41666667  0.41666667       0.005
  -0.50000000  0.50000000  0.50000000       0.002
   0.00000000  0.00000000  0.16666667       0.003
  -0.08333333  0.08333333  0.25000000       0.014
  -0.16666667  0.16666667  0.33333333       0.014
  -0.25000000  0.25000000  0.41666667       0.014
  -0.33333333  0.33333333  0.50000000       0.014
  -0.41666667  0.41666667  0.58333333       0.014
   0.50000000 -0.50000000 -0.33333333       0.014
   0.41666667 -0.41666667 -0.25000000       0.014
   0.33333333 -0.33333333 -0.16666667       0.014
   0.25000000 -0.25000000 -0.08333333       0.014
   0.16666667 -0.16666667  0.00000000       0.007
   0.00000000  0.00000000  0.33333333       0.003
  -0.08333333  0.08333333  0.41666667       0.014
  -0.16666667  0.16666667  0.50000000       0.014
  -0.25000000  0.25000000  0.58333333       0.014
  -0.33333333  0.33333333  0.66666667       0.014
   0.58333333 -0.58333333 -0.25000000       0.014
   0.50000000 -0.50000000 -0.16666667       0.014
   0.41666667 -0.41666667 -0.08333333       0.014
   0.33333333 -0.33333333  0.00000000       0.007
   0.00000000  0.00000000  0.50000000       0.003
  -0.08333333  0.08333333  0.58333333       0.014
  -0.16666667  0.16666667  0.66666667       0.014
  -0.25000000  0.25000000  0.75000000       0.014
   0.66666667 -0.66666667 -0.16666667       0.014
   0.58333333 -0.58333333 -0.08333333       0.014
   0.50000000 -0.50000000  0.00000000       0.007
   0.00000000  0.00000000  0.66666667       0.003
  -0.08333333  0.08333333  0.75000000       0.014
  -0.16666667  0.16666667  0.83333333       0.014
   0.75000000 -0.75000000 -0.08333333       0.014
   0.66666667 -0.66666667  0.00000000       0.007
   0.00000000  0.00000000  0.83333333       0.003
  -0.08333333  0.08333333  0.91666667       0.014
   0.83333333 -0.83333333  0.00000000       0.007
   0.00000000  0.00000000  1.00000000       0.002
   0.00000000  0.16666667  0.33333333       0.014
  -0.08333333  0.25000000  0.41666667       0.028
  -0.16666667  0.33333333  0.50000000       0.028
  -0.25000000  0.41666667  0.58333333       0.028
   0.66666667 -0.50000000 -0.33333333       0.014
   0.00000000  0.16666667  0.50000000       0.014
  -0.08333333  0.25000000  0.58333333       0.028
  -0.16666667  0.33333333  0.66666667       0.028
   0.75000000 -0.58333333 -0.25000000       0.028
   0.66666667 -0.50000000 -0.16666667       0.028
   0.58333333 -0.41666667 -0.08333333       0.028
   0.50000000 -0.33333333  0.00000000       0.014
  -0.00000000  0.16666667  0.66666667       0.014
  -0.08333333  0.25000000  0.75000000       0.028
   0.83333333 -0.66666667 -0.16666667       0.028
   0.75000000 -0.58333333 -0.08333333       0.028
   0.66666667 -0.50000000  0.00000000       0.014
   0.00000000  0.16666667  0.83333333       0.014
   0.91666667 -0.75000000 -0.08333333       0.028
   0.83333333 -0.66666667  0.00000000       0.014
   1.00000000 -0.83333333  0.00000000       0.007
   0.00000000  0.33333333  0.66666667       0.014
   0.91666667 -0.58333333 -0.25000000       0.028
   0.83333333 -0.50000000 -0.16666667       0.014
   1.00000000 -0.66666667 -0.16666667       0.014
   0.91666667 -0.58333333 -0.08333333       0.028
   0.83333333 -0.50000000  0.00000000       0.014
   1.00000000 -0.66666667  0.00000000       0.007
   1.00000000 -0.50000000  0.00000000       0.003
 
 k-points in reciprocal lattice and weights: Gamma centered Monkhorst-Pack           
   0.00000000  0.00000000  0.00000000       0.001
   0.08333333  0.00000000  0.00000000       0.005
   0.16666667  0.00000000  0.00000000       0.005
   0.25000000  0.00000000  0.00000000       0.005
   0.33333333  0.00000000  0.00000000       0.005
   0.41666667  0.00000000  0.00000000       0.005
   0.50000000  0.00000000  0.00000000       0.002
   0.08333333  0.08333333  0.00000000       0.003
   0.16666667  0.08333333  0.00000000       0.014
   0.25000000  0.08333333  0.00000000       0.014
   0.33333333  0.08333333  0.00000000       0.014
   0.41666667  0.08333333  0.00000000       0.014
   0.50000000  0.08333333  0.00000000       0.014
  -0.41666667  0.08333333  0.00000000       0.014
  -0.33333333  0.08333333  0.00000000       0.014
  -0.25000000  0.08333333  0.00000000       0.014
  -0.16666667  0.08333333  0.00000000       0.014
  -0.08333333  0.08333333  0.00000000       0.007
   0.16666667  0.16666667  0.00000000       0.003
   0.25000000  0.16666667  0.00000000       0.014
   0.33333333  0.16666667  0.00000000       0.014
   0.41666667  0.16666667  0.00000000       0.014
   0.50000000  0.16666667  0.00000000       0.014
  -0.41666667  0.16666667  0.00000000       0.014
  -0.33333333  0.16666667  0.00000000       0.014
  -0.25000000  0.16666667  0.00000000       0.014
  -0.16666667  0.16666667  0.00000000       0.007
   0.25000000  0.25000000  0.00000000       0.003
   0.33333333  0.25000000  0.00000000       0.014
   0.41666667  0.25000000  0.00000000       0.014
   0.50000000  0.25000000  0.00000000       0.014
  -0.41666667  0.25000000  0.00000000       0.014
  -0.33333333  0.25000000  0.00000000       0.014
  -0.25000000  0.25000000  0.00000000       0.007
   0.33333333  0.33333333  0.00000000       0.003
   0.41666667  0.33333333  0.00000000       0.014
   0.50000000  0.33333333  0.00000000       0.014
  -0.41666667  0.33333333  0.00000000       0.014
  -0.33333333  0.33333333  0.00000000       0.007
   0.41666667  0.41666667  0.00000000       0.003
   0.50000000  0.41666667  0.00000000       0.014
  -0.41666667  0.41666667  0.00000000       0.007
   0.50000000  0.50000000  0.00000000       0.002
   0.25000000  0.16666667  0.08333333       0.014
   0.33333333  0.16666667  0.08333333       0.028
   0.41666667  0.16666667  0.08333333       0.028
   0.50000000  0.16666667  0.08333333       0.028
  -0.41666667  0.16666667  0.08333333       0.014
   0.33333333  0.25000000  0.08333333       0.014
   0.41666667  0.25000000  0.08333333       0.028
   0.50000000  0.25000000  0.08333333       0.028
  -0.41666667  0.25000000  0.08333333       0.028
  -0.33333333  0.25000000  0.08333333       0.028
  -0.25000000  0.25000000  0.08333333       0.028
  -0.16666667  0.25000000  0.08333333       0.014
   0.41666667  0.33333333  0.08333333       0.014
   0.50000000  0.33333333  0.08333333       0.028
  -0.41666667  0.33333333  0.08333333       0.028
  -0.33333333  0.33333333  0.08333333       0.028
  -0.25000000  0.33333333  0.08333333       0.014
   0.50000000  0.41666667  0.08333333       0.014
  -0.41666667  0.41666667  0.08333333       0.028
  -0.33333333  0.41666667  0.08333333       0.014
  -0.41666667  0.50000000  0.08333333       0.007
   0.50000000  0.33333333  0.16666667       0.014
  -0.41666667  0.33333333  0.16666667       0.028
  -0.33333333  0.33333333  0.16666667       0.014
  -0.41666667  0.41666667  0.16666667       0.014
  -0.33333333  0.41666667  0.16666667       0.028
  -0.25000000  0.41666667  0.16666667       0.014
  -0.33333333  0.50000000  0.16666667       0.007
  -0.25000000  0.50000000  0.25000000       0.003
 
 position of ions in fractional coordinates (direct lattice) 
   0.00000000  0.00000000  0.00000000
   0.25000000  0.25000000  0.25000000
 
 position of ions in cartesian coordinates  (Angst):
   0.00000000  0.00000000  0.00000000
   1.41450816  1.41450816  1.41450816
 


--------------------------------------------------------------------------------------------------------


 k-point  1 :   0.0000 0.0000 0.0000  plane waves:    1459
 k-point  2 :   0.0833 0.0000 0.0000  plane waves:    1462
 k-point  3 :   0.1667 0.0000 0.0000  plane waves:    1495
 k-point  4 :   0.2500 0.0000 0.0000  plane waves:    1507
 k-point  5 :   0.3333 0.0000 0.0000  plane waves:    1501
 k-point  6 :   0.4167 0.0000 0.0000  plane waves:    1498
 k-point  7 :   0.5000 0.0000 0.0000  plane waves:    1502
 k-point  8 :   0.0833 0.0833 0.0000  plane waves:    1471
 k-point  9 :   0.1667 0.0833 0.0000  plane waves:    1489
 k-point 10 :   0.2500 0.0833 0.0000  plane waves:    1505
 k-point 11 :   0.3333 0.0833 0.0000  plane waves:    1501
 k-point 12 :   0.4167 0.0833 0.0000  plane waves:    1496
 k-point 13 :   0.5000 0.0833 0.0000  plane waves:    1508
 k-point 14 :  -0.4167 0.0833 0.0000  plane waves:    1506
 k-point 15 :  -0.3333 0.0833 0.0000  plane waves:    1505
 k-point 16 :  -0.2500 0.0833 0.0000  plane waves:    1507
 k-point 17 :  -0.1667 0.0833 0.0000  plane waves:    1497
 k-point 18 :  -0.0833 0.0833 0.0000  plane waves:    1484
 k-point 19 :   0.1667 0.1667 0.0000  plane waves:    1491
 k-point 20 :   0.2500 0.1667 0.0000  plane waves:    1504
 k-point 21 :   0.3333 0.1667 0.0000  plane waves:    1516
 k-point 22 :   0.4167 0.1667 0.0000  plane waves:    1507
 k-point 23 :   0.5000 0.1667 0.0000  plane waves:    1517
 k-point 24 :  -0.4167 0.1667 0.0000  plane waves:    1504
 k-point 25 :  -0.3333 0.1667 0.0000  plane waves:    1509
 k-point 26 :  -0.2500 0.1667 0.0000  plane waves:    1518
 k-point 27 :  -0.1667 0.1667 0.0000  plane waves:    1502
 k-point 28 :   0.2500 0.2500 0.0000  plane waves:    1491
 k-point 29 :   0.3333 0.2500 0.0000  plane waves:    1515
 k-point 30 :   0.4167 0.2500 0.0000  plane waves:    1505
 k-point 31 :   0.5000 0.2500 0.0000  plane waves:    1515
 k-point 32 :  -0.4167 0.2500 0.0000  plane waves:    1518
 k-point 33 :  -0.3333 0.2500 0.0000  plane waves:    1515
 k-point 34 :  -0.2500 0.2500 0.0000  plane waves:    1522
 k-point 35 :   0.3333 0.3333 0.0000  plane waves:    1527
 k-point 36 :   0.4167 0.3333 0.0000  plane waves:    1514
 k-point 37 :   0.5000 0.3333 0.0000  plane waves:    1511
 k-point 38 :  -0.4167 0.3333 0.0000  plane waves:    1515
 k-point 39 :  -0.3333 0.3333 0.0000  plane waves:    1516
 k-point 40 :   0.4167 0.4167 0.0000  plane waves:    1524
 k-point 41 :   0.5000 0.4167 0.0000  plane waves:    1525
 k-point 42 :  -0.4167 0.4167 0.0000  plane waves:    1512
 k-point 43 :   0.5000 0.5000 0.0000  plane waves:    1524
 k-point 44 :   0.2500 0.1667 0.0833  plane waves:    1502
 k-point 45 :   0.3333 0.1667 0.0833  plane waves:    1507
 k-point 46 :   0.4167 0.1667 0.0833  plane waves:    1509
 k-point 47 :   0.5000 0.1667 0.0833  plane waves:    1508
 k-point 48 :  -0.4167 0.1667 0.0833  plane waves:    1514
 k-point 49 :   0.3333 0.2500 0.0833  plane waves:    1507
 k-point 50 :   0.4167 0.2500 0.0833  plane waves:    1512
 k-point 51 :   0.5000 0.2500 0.0833  plane waves:    1508
 k-point 52 :  -0.4167 0.2500 0.0833  plane waves:    1517
 k-point 53 :  -0.3333 0.2500 0.0833  plane waves:    1515
 k-point 54 :  -0.2500 0.2500 0.0833  plane waves:    1513
 k-point 55 :  -0.1667 0.2500 0.0833  plane waves:    1522
 k-point 56 :   0.4167 0.3333 0.0833  plane waves:    1510
 k-point 57 :   0.5000 0.3333 0.0833  plane waves:    1515
 k-point 58 :  -0.4167 0.3333 0.0833  plane waves:    1517
 k-point 59 :  -0.3333 0.3333 0.0833  plane waves:    1518
 k-point 60 :  -0.2500 0.3333 0.0833  plane waves:    1511
 k-point 61 :   0.5000 0.4167 0.0833  plane waves:    1519
 k-point 62 :  -0.4167 0.4167 0.0833  plane waves:    1517
 k-point 63 :  -0.3333 0.4167 0.0833  plane waves:    1514
 k-point 64 :  -0.4167 0.5000 0.0833  plane waves:    1532
 k-point 65 :   0.5000 0.3333 0.1667  plane waves:    1508
 k-point 66 :  -0.4167 0.3333 0.1667  plane waves:    1516
 k-point 67 :  -0.3333 0.3333 0.1667  plane waves:    1518
 k-point 68 :  -0.4167 0.4167 0.1667  plane waves:    1523
 k-point 69 :  -0.3333 0.4167 0.1667  plane waves:    1516
 k-point 70 :  -0.2500 0.4167 0.1667  plane waves:    1519
 k-point 71 :  -0.3333 0.5000 0.1667  plane waves:    1510
 k-point 72 :  -0.2500 0.5000 0.2500  plane waves:    1540

 maximum and minimum number of plane-waves per node :      1540     1459

 maximum number of plane-waves:      1540
 maximum index in each direction: 
   IXMAX=    8   IYMAX=    7   IZMAX=    7
   IXMIN=   -8   IYMIN=   -8   IZMIN=   -8

 WARNING: aliasing errors must be expected set NGX to  34 to avoid them
 WARNING: aliasing errors must be expected set NGY to  32 to avoid them
 WARNING: aliasing errors must be expected set NGZ to  32 to avoid them
 aliasing errors are usually negligible using standard VASP settings
 and one can safely disregard these warnings

 serial   3D FFT for wavefunctions
 parallel 3D FFT for charge:
    minimum data exchange during FFTs selected (reduces bandwidth)


 total amount of memory used by VASP on root node    43687. kBytes
========================================================================

   base      :      30000. kBytes
   nonl-proj :       7145. kBytes
   fftplans  :       1025. kBytes
   grid      :       1926. kBytes
   one-center:          6. kBytes
   wavefun   :       3585. kBytes
 
     INWAV:  cpu time    0.00: real time    0.00
 Broyden mixing: mesh for mixing (old mesh)
   NGX = 15   NGY = 15   NGZ = 15
  (NGX  = 48   NGY  = 48   NGZ  = 48)
  gives a total of   3375 points

 initial charge density was supplied:
 charge density of overlapping atoms calculated
 number of electron       8.0000000 magnetization 
 keeping initial charge density in first step


--------------------------------------------------------------------------------------------------------


 Maximum index for augmentation-charges         2487 (set IRDMAX)


--------------------------------------------------------------------------------------------------------


 First call to EWALD:  gamma=   0.497
 Maximum number of real-space cells 3x 3x 3
 Maximum number of reciprocal cells 3x 3x 3

 FEWALD executed in parallel
    FEWALD:  cpu time    0.00: real time    0.00


----------------------------------------- Iteration    1(   1)  ---------------------------------------


    POTLOK:  cpu time    0.01: real time    0.02
    SETDIJ:  cpu time    0.00: real time    0.00
     EDDAV:  cpu time    0.26: real time    0.27
       DOS:  cpu time    0.00: real time    0.00
    --------------------------------------------
      LOOP:  cpu time    0.28: real time    0.29

 eigenvalue-minimisations  :  1152
 total energy-change (2. order) : 0.8228688E+01  (-0.3458453E+03)
 number of electron       8.0000000 magnetization 
 augmentation part        8.0000000 magnetization 

 Free energy of the ion-electron system (eV)
  ---------------------------------------------------
  alpha Z        PSCENC =         2.97356520
  Ewald energy   TEWEN  =      -219.35185245
  -Hartree energ DENC   =       -12.93095273
  -exchange      EXHF   =         0.00000000
  -V(xc)+E(xc)   XCENC  =       -19.06872334
  PAW double counting   =        65.95520812      -30.76852678
  entropy T*S    EENTRO =        -0.00335783
  eigenvalues    EBANDS =        15.29020920
  atomic energy  EATOM  =       206.13311910
  ---------------------------------------------------
  free energy    TOTEN  =         8.22868849 eV

  energy without entropy =        8.23204632  energy(sigma->0) =        8.23036741


--------------------------------------------------------------------------------------------------------




----------------------------------------- Iteration    1(   2)  ---------------------------------------


     EDDAV:  cpu time    0.40: real time    0.43
       DOS:  cpu time    0.00: real time    0.00
    --------------------------------------------
      LOOP:  cpu time    0.40: real time    0.43

 eigenvalue-minimisations  :  1784
 total energy-change (2. order) :-0.1880141E+02  (-0.1823572E+02)
 number of electron       8.0000000 magnetization 
 augmentation part        8.0000000 magnetization 

 Free energy of the ion-electron system (eV)
  ---------------------------------------------------
  alpha Z        PSCENC =         2.97356520
  Ewald energy   TEWEN  =      -219.35185245
  -Hartree energ DENC   =       -12.93095273
  -exchange      EXHF   =         0.00000000
  -V(xc)+E(xc)   XCENC  =       -19.06872334
  PAW double counting   =        65.95520812      -30.76852678
  entropy T*S    EENTRO =        -0.00000000
  eigenvalues    EBANDS =        -3.51455836
  atomic energy  EATOM  =       206.13311910
  ---------------------------------------------------
  free energy    TOTEN  =       -10.57272125 eV

  energy without entropy =      -10.57272125  energy(sigma->0) =      -10.57272125


--------------------------------------------------------------------------------------------------------




----------------------------------------- Iteration    1(   3)  ---------------------------------------


     EDDAV:  cpu time    0.32: real time    0.33
       DOS:  cpu time    0.00: real time    0.00
    --------------------------------------------
      LOOP:  cpu time    0.32: real time    0.34

 eigenvalue-minimisations  :  1480
 total energy-change (2. order) :-0.2841220E+00  (-0.2841220E+00)
 number of electron       8.0000000 magnetization 
 augmentation part        8.0000000 magnetization 

 Free energy of the ion-electron system (eV)
  ---------------------------------------------------
  alpha Z        PSCENC =         2.97356520
  Ewald energy   TEWEN  =      -219.35185245
  -Hartree energ DENC   =       -12.93095273
  -exchange      EXHF   =         0.00000000
  -V(xc)+E(xc)   XCENC  =       -19.06872334
  PAW double counting   =        65.95520812      -30.76852678
  entropy T*S    EENTRO =        -0.00000000
  eigenvalues    EBANDS =        -3.79868032
  atomic energy  EATOM  =       206.13311910
  ---------------------------------------------------
  free energy    TOTEN  =       -10.85684320 eV

  energy without entropy =      -10.85684320  energy(sigma->0) =      -10.85684320


--------------------------------------------------------------------------------------------------------




----------------------------------------- Iteration    1(   4)  ---------------------------------------


     EDDAV:  cpu time    0.38: real time    0.40
       DOS:  cpu time    0.00: real time    0.00
    --------------------------------------------
      LOOP:  cpu time    0.38: real time    0.40

 eigenvalue-minimisations  :  1848
 total energy-change (2. order) :-0.1448815E-02  (-0.1448815E-02)
 number of electron       8.0000000 magnetization 
 augmentation part        8.0000000 magnetization 

 Free energy of the ion-electron system (eV)
  ---------------------------------------------------
  alpha Z        PSCENC =         2.97356520
  Ewald energy   TEWEN  =      -219.35185245
  -Hartree energ DENC   =       -12.93095273
  -exchange      EXHF   =         0.00000000
  -V(xc)+E(xc)   XCENC  =       -19.06872334
  PAW double counting   =        65.95520812      -30.76852678
  entropy T*S    EENTRO =        -0.00000000
  eigenvalues    EBANDS =        -3.80012913
  atomic energy  EATOM  =       206.13311910
  ---------------------------------------------------
  free energy    TOTEN  =       -10.85829201 eV

  energy without entropy =      -10.85829201  energy(sigma->0) =      -10.85829201


--------------------------------------------------------------------------------------------------------




----------------------------------------- Iteration    1(   5)  ---------------------------------------


     EDDAV:  cpu time    0.32: real time    0.34
       DOS:  cpu time    0.00: real time    0.00
    CHARGE:  cpu time    0.02: real time    0.02
    MIXING:  cpu time    0.00: real time    0.00
    --------------------------------------------
      LOOP:  cpu time    0.34: real time    0.36

 eigenvalue-minimisations  :  1528
 total energy-change (2. order) :-0.1438914E-05  (-0.1438786E-05)
 number of electron       8.0000002 magnetization 
 augmentation part       -0.4663006 magnetization 

 Broyden mixing:
  rms(total) = 0.27135E+00    rms(broyden)= 0.27135E+00
  rms(prec ) = 0.76046E+00
  weight for this iteration     100.00

 Free energy of the ion-electron system (eV)
  ---------------------------------------------------
  alpha Z        PSCENC =         2.97356520
  Ewald energy   TEWEN  =      -219.35185245
  -Hartree energ DENC   =       -12.93095273
  -exchange      EXHF   =         0.00000000
  -V(xc)+E(xc)   XCENC  =       -19.06872334
  PAW double counting   =        65.95520812      -30.76852678
  entropy T*S    EENTRO =        -0.00000000
  eigenvalues    EBANDS =        -3.80013057
  atomic energy  EATOM  =       206.13311910
  ---------------------------------------------------
  free energy    TOTEN  =       -10.85829345 eV

  energy without entropy =      -10.85829345  energy(sigma->0) =      -10.85829345


--------------------------------------------------------------------------------------------------------




----------------------------------------- Iteration    1(   6)  ---------------------------------------


    POTLOK:  cpu time    0.02: real time    0.01
    SETDIJ:  cpu time    0.00: real time    0.00
     EDDAV:  cpu time    0.31: real time    0.32
       DOS:  cpu time    0.00: real time    0.00
    CHARGE:  cpu time    0.02: real time    0.02
    MIXING:  cpu time    0.00: real time    0.00
    --------------------------------------------
      LOOP:  cpu time    0.34: real time    0.36

 eigenvalue-minimisations  :  1432
 total energy-change (2. order) : 0.7893801E-01  (-0.4723950E-02)
 number of electron       8.0000002 magnetization 
 augmentation part       -0.4621273 magnetization 

 Broyden mixing:
  rms(total) = 0.16373E+00    rms(broyden)= 0.16373E+00
  rms(prec ) = 0.45777E+00
  weight for this iteration     100.00

 eigenvalues of (default mixing * dielectric matrix)
  average eigenvalue GAMMA=   2.5024
  2.5024

 Free energy of the ion-electron system (eV)
  ---------------------------------------------------
  alpha Z        PSCENC =         2.97356520
  Ewald energy   TEWEN  =      -219.35185245
  -Hartree energ DENC   =       -14.21773244
  -exchange      EXHF   =         0.00000000
  -V(xc)+E(xc)   XCENC  =       -18.86989094
  PAW double counting   =        68.43086155      -33.31110188
  entropy T*S    EENTRO =        -0.00000000
  eigenvalues    EBANDS =        -2.56632360
  atomic energy  EATOM  =       206.13311910
  ---------------------------------------------------
  free energy    TOTEN  =       -10.77935544 eV

  energy without entropy =      -10.77935544  energy(sigma->0) =      -10.77935544


--------------------------------------------------------------------------------------------------------




----------------------------------------- Iteration    1(   7)  ---------------------------------------


    POTLOK:  cpu time    0.02: real time    0.02
    SETDIJ:  cpu time    0.00: real time    0.00
     EDDAV:  cpu time    0.32: real time    0.33
       DOS:  cpu time    0.00: real time    0.00
    CHARGE:  cpu time    0.02: real time    0.02
    MIXING:  cpu time    0.00: real time    0.00
    --------------------------------------------
      LOOP:  cpu time    0.36: real time    0.37

 eigenvalue-minimisations  :  1432
 total energy-change (2. order) : 0.3997561E-01  (-0.9931502E-02)
 number of electron       8.0000002 magnetization 
 augmentation part       -0.4571542 magnetization 

 Broyden mixing:
  rms(total) = 0.12816E-01    rms(broyden)= 0.12816E-01
  rms(prec ) = 0.32753E-01
  weight for this iteration     100.00

 eigenvalues of (default mixing * dielectric matrix)
  average eigenvalue GAMMA=   2.4899
  2.4899  2.4899

 Free energy of the ion-electron system (eV)
  ---------------------------------------------------
  alpha Z        PSCENC =         2.97356520
  Ewald energy   TEWEN  =      -219.35185245
  -Hartree energ DENC   =       -16.40444508
  -exchange      EXHF   =         0.00000000
  -V(xc)+E(xc)   XCENC  =       -18.52375885
  PAW double counting   =        71.60409545      -36.56799165
  entropy T*S    EENTRO =        -0.00000000
  eigenvalues    EBANDS =        -0.60211157
  atomic energy  EATOM  =       206.13311910
  ---------------------------------------------------
  free energy    TOTEN  =       -10.73937983 eV

  energy without entropy =      -10.73937983  energy(sigma->0) =      -10.73937983


--------------------------------------------------------------------------------------------------------




----------------------------------------- Iteration    1(   8)  ---------------------------------------


    POTLOK:  cpu time    0.01: real time    0.01
    SETDIJ:  cpu time    0.00: real time    0.00
     EDDAV:  cpu time    0.28: real time    0.29
       DOS:  cpu time    0.00: real time    0.00
    CHARGE:  cpu time    0.02: real time    0.02
    MIXING:  cpu time    0.00: real time    0.00
    --------------------------------------------
      LOOP:  cpu time    0.31: real time    0.33

 eigenvalue-minimisations  :  1272
 total energy-change (2. order) :-0.1350368E-02  (-0.3301692E-03)
 number of electron       8.0000002 magnetization 
 augmentation part       -0.4579760 magnetization 

 Broyden mixing:
  rms(total) = 0.25860E-02    rms(broyden)= 0.25860E-02
  rms(prec ) = 0.85330E-02
  weight for this iteration     100.00

 eigenvalues of (default mixing * dielectric matrix)
  average eigenvalue GAMMA=   2.1428
  1.2820  2.8487  2.2977

 Free energy of the ion-electron system (eV)
  ---------------------------------------------------
  alpha Z        PSCENC =         2.97356520
  Ewald energy   TEWEN  =      -219.35185245
  -Hartree energ DENC   =       -16.36692345
  -exchange      EXHF   =         0.00000000
  -V(xc)+E(xc)   XCENC  =       -18.52254932
  PAW double counting   =        70.80226378      -35.74212439
  entropy T*S    EENTRO =        -0.00000000
  eigenvalues    EBANDS =        -0.66622869
  atomic energy  EATOM  =       206.13311910
  ---------------------------------------------------
  free energy    TOTEN  =       -10.74073020 eV

  energy without entropy =      -10.74073020  energy(sigma->0) =      -10.74073020


--------------------------------------------------------------------------------------------------------




----------------------------------------- Iteration    1(   9)  ---------------------------------------


    POTLOK:  cpu time    0.01: real time    0.01
    SETDIJ:  cpu time    0.00: real time    0.00
     EDDAV:  cpu time    0.38: real time    0.39
       DOS:  cpu time    0.00: real time    0.00
    CHARGE:  cpu time    0.02: real time    0.02
    MIXING:  cpu time    0.00: real time    0.00
    --------------------------------------------
      LOOP:  cpu time    0.42: real time    0.43

 eigenvalue-minimisations  :  1792
 total energy-change (2. order) :-0.1306401E-03  (-0.1446425E-04)
 number of electron       8.0000002 magnetization 
 augmentation part       -0.4580383 magnetization 

 Broyden mixing:
  rms(total) = 0.14394E-02    rms(broyden)= 0.14394E-02
  rms(prec ) = 0.36360E-02
  weight for this iteration     100.00

 eigenvalues of (default mixing * dielectric matrix)
  average eigenvalue GAMMA=   2.2361
  0.9778  3.1308  2.4179  2.4179

 Free energy of the ion-electron system (eV)
  ---------------------------------------------------
  alpha Z        PSCENC =         2.97356520
  Ewald energy   TEWEN  =      -219.35185245
  -Hartree energ DENC   =       -16.40947261
  -exchange      EXHF   =         0.00000000
  -V(xc)+E(xc)   XCENC  =       -18.51591096
  PAW double counting   =        70.75584455      -35.69474505
  entropy T*S    EENTRO =        -0.00000000
  eigenvalues    EBANDS =        -0.63140863
  atomic energy  EATOM  =       206.13311910
  ---------------------------------------------------
  free energy    TOTEN  =       -10.74086084 eV

  energy without entropy =      -10.74086084  energy(sigma->0) =      -10.74086084


--------------------------------------------------------------------------------------------------------




----------------------------------------- Iteration    1(  10)  ---------------------------------------


    POTLOK:  cpu time    0.01: real time    0.02
    SETDIJ:  cpu time    0.00: real time    0.00
     EDDAV:  cpu time    0.31: real time    0.33
       DOS:  cpu time    0.01: real time    0.01
    CHARGE:  cpu time    0.02: real time    0.02
    MIXING:  cpu time    0.00: real time    0.00
    --------------------------------------------
      LOOP:  cpu time    0.35: real time    0.37

 eigenvalue-minimisations  :  1248
 total energy-change (2. order) :-0.2142070E-04  (-0.3505640E-05)
 number of electron       8.0000002 magnetization 
 augmentation part       -0.4579496 magnetization 

 Broyden mixing:
  rms(total) = 0.14712E-03    rms(broyden)= 0.14712E-03
  rms(prec ) = 0.39992E-03
  weight for this iteration     100.00

 eigenvalues of (default mixing * dielectric matrix)
  average eigenvalue GAMMA=   2.0617
  3.2362  2.6185  2.1784  0.9738  1.3017

 Free energy of the ion-electron system (eV)
  ---------------------------------------------------
  alpha Z        PSCENC =         2.97356520
  Ewald energy   TEWEN  =      -219.35185245
  -Hartree energ DENC   =       -16.42234813
  -exchange      EXHF   =         0.00000000
  -V(xc)+E(xc)   XCENC  =       -18.51569960
  PAW double counting   =        70.77044589      -35.71071697
  entropy T*S    EENTRO =        -0.00000000
  eigenvalues    EBANDS =        -0.61739532
  atomic energy  EATOM  =       206.13311910
  ---------------------------------------------------
  free energy    TOTEN  =       -10.74088226 eV

  energy without entropy =      -10.74088226  energy(sigma->0) =      -10.74088226


--------------------------------------------------------------------------------------------------------




----------------------------------------- Iteration    1(  11)  ---------------------------------------


    POTLOK:  cpu time    0.01: real time    0.02
    SETDIJ:  cpu time    0.00: real time    0.00
     EDDAV:  cpu time    0.40: real time    0.44
       DOS:  cpu time    0.00: real time    0.00
    CHARGE:  cpu time    0.02: real time    0.02
    MIXING:  cpu time    0.00: real time    0.00
    --------------------------------------------
      LOOP:  cpu time    0.43: real time    0.48

 eigenvalue-minimisations  :  1840
 total energy-change (2. order) : 0.6584319E-06  (-0.4559023E-07)
 number of electron       8.0000002 magnetization 
 augmentation part       -0.4579634 magnetization 

 Broyden mixing:
  rms(total) = 0.55775E-04    rms(broyden)= 0.55775E-04
  rms(prec ) = 0.10456E-03
  weight for this iteration     100.00

 eigenvalues of (default mixing * dielectric matrix)
  average eigenvalue GAMMA=   2.1585
  3.2941  2.8402  2.6139  2.1817  0.9783  1.0426

 Free energy of the ion-electron system (eV)
  ---------------------------------------------------
  alpha Z        PSCENC =         2.97356520
  Ewald energy   TEWEN  =      -219.35185245
  -Hartree energ DENC   =       -16.42007416
  -exchange      EXHF   =         0.00000000
  -V(xc)+E(xc)   XCENC  =       -18.51588640
  PAW double counting   =        70.75990356      -35.69972411
  entropy T*S    EENTRO =        -0.00000000
  eigenvalues    EBANDS =        -0.61993235
  atomic energy  EATOM  =       206.13311910
  ---------------------------------------------------
  free energy    TOTEN  =       -10.74088160 eV

  energy without entropy =      -10.74088160  energy(sigma->0) =      -10.74088160


--------------------------------------------------------------------------------------------------------




----------------------------------------- Iteration    1(  12)  ---------------------------------------


    POTLOK:  cpu time    0.01: real time    0.01
    SETDIJ:  cpu time    0.00: real time    0.00
     EDDAV:  cpu time    0.27: real time    0.28
       DOS:  cpu time    0.00: real time    0.00
    CHARGE:  cpu time    0.02: real time    0.02
    MIXING:  cpu time    0.00: real time    0.00
    --------------------------------------------
      LOOP:  cpu time    0.30: real time    0.32

 eigenvalue-minimisations  :  1224
 total energy-change (2. order) : 0.1028758E-07  (-0.6740922E-08)
 number of electron       8.0000002 magnetization 
 augmentation part       -0.4579610 magnetization 

 Broyden mixing:
  rms(total) = 0.60569E-05    rms(broyden)= 0.60568E-05
  rms(prec ) = 0.20406E-04
  weight for this iteration     100.00

 eigenvalues of (default mixing * dielectric matrix)
  average eigenvalue GAMMA=   1.9947
  3.3174  2.7262  2.3820  2.3351  0.9733  1.1145  1.1145

 Free energy of the ion-electron system (eV)
  ---------------------------------------------------
  alpha Z        PSCENC =         2.97356520
  Ewald energy   TEWEN  =      -219.35185245
  -Hartree energ DENC   =       -16.42060105
  -exchange      EXHF   =         0.00000000
  -V(xc)+E(xc)   XCENC  =       -18.51582424
  PAW double counting   =        70.76167117      -35.70142208
  entropy T*S    EENTRO =        -0.00000000
  eigenvalues    EBANDS =        -0.61953725
  atomic energy  EATOM  =       206.13311910
  ---------------------------------------------------
  free energy    TOTEN  =       -10.74088159 eV

  energy without entropy =      -10.74088159  energy(sigma->0) =      -10.74088159


--------------------------------------------------------------------------------------------------------




----------------------------------------- Iteration    1(  13)  ---------------------------------------


    POTLOK:  cpu time    0.02: real time    0.01
    SETDIJ:  cpu time    0.00: real time    0.00
     EDDAV:  cpu time    0.41: real time    0.45
       DOS:  cpu time    0.00: real time    0.00
    CHARGE:  cpu time    0.02: real time    0.02
    MIXING:  cpu time    0.00: real time    0.00
    --------------------------------------------
      LOOP:  cpu time    0.44: real time    0.48

 eigenvalue-minimisations  :  1960
 total energy-change (2. order) : 0.1723913E-07  (-0.7542260E-10)
 number of electron       8.0000002 magnetization 
 augmentation part       -0.4579616 magnetization 

 Broyden mixing:
  rms(total) = 0.19586E-05    rms(broyden)= 0.19586E-05
  rms(prec ) = 0.31271E-05
  weight for this iteration     100.00

 eigenvalues of (default mixing * dielectric matrix)
  average eigenvalue GAMMA=   2.0722
  3.3093  2.7958  2.7958  2.4946  2.2111  1.0213  0.9937  0.9562

 Free energy of the ion-electron system (eV)
  ---------------------------------------------------
  alpha Z        PSCENC =         2.97356520
  Ewald energy   TEWEN  =      -219.35185245
  -Hartree energ DENC   =       -16.42049008
  -exchange      EXHF   =         0.00000000
  -V(xc)+E(xc)   XCENC  =       -18.51583385
  PAW double counting   =        70.76122802      -35.70096785
  entropy T*S    EENTRO =        -0.00000000
  eigenvalues    EBANDS =        -0.61964968
  atomic energy  EATOM  =       206.13311910
  ---------------------------------------------------
  free energy    TOTEN  =       -10.74088158 eV

  energy without entropy =      -10.74088158  energy(sigma->0) =      -10.74088158


--------------------------------------------------------------------------------------------------------




----------------------------------------- Iteration    1(  14)  ---------------------------------------


    POTLOK:  cpu time    0.02: real time    0.01
    SETDIJ:  cpu time    0.00: real time    0.00
     EDDAV:  cpu time    0.28: real time    0.29
       DOS:  cpu time    0.00: real time    0.00
    CHARGE:  cpu time    0.02: real time    0.02
    MIXING:  cpu time    0.00: real time    0.00
    --------------------------------------------
      LOOP:  cpu time    0.31: real time    0.33

 eigenvalue-minimisations  :  1280
 total energy-change (2. order) :-0.4708085E-08  (-0.8145718E-11)
 number of electron       8.0000002 magnetization 
 augmentation part       -0.4579616 magnetization 

 Broyden mixing:
  rms(total) = 0.35819E-06    rms(broyden)= 0.35814E-06
  rms(prec ) = 0.98743E-06
  weight for this iteration     100.00

 eigenvalues of (default mixing * dielectric matrix)
  average eigenvalue GAMMA=   1.9576
  3.3186  2.8862  2.6456  2.4951  2.2390  1.0670  1.0357  0.9465  0.9844

 Free energy of the ion-electron system (eV)
  ---------------------------------------------------
  alpha Z        PSCENC =         2.97356520
  Ewald energy   TEWEN  =      -219.35185245
  -Hartree energ DENC   =       -16.42047901
  -exchange      EXHF   =         0.00000000
  -V(xc)+E(xc)   XCENC  =       -18.51583320
  PAW double counting   =        70.76119074      -35.70093581
  entropy T*S    EENTRO =        -0.00000000
  eigenvalues    EBANDS =        -0.61965616
  atomic energy  EATOM  =       206.13311910
  ---------------------------------------------------
  free energy    TOTEN  =       -10.74088158 eV

  energy without entropy =      -10.74088158  energy(sigma->0) =      -10.74088158


--------------------------------------------------------------------------------------------------------




----------------------------------------- Iteration    1(  15)  ---------------------------------------


    POTLOK:  cpu time    0.01: real time    0.01
    SETDIJ:  cpu time    0.00: real time    0.00
     EDDAV:  cpu time    0.21: real time    0.22
       DOS:  cpu time    0.00: real time    0.00
    CHARGE:  cpu time    0.02: real time    0.02
    MIXING:  cpu time    0.00: real time    0.00
    --------------------------------------------
      LOOP:  cpu time    0.24: real time    0.26

 eigenvalue-minimisations  :   808
 total energy-change (2. order) :-0.1391243E-08  (-0.1970914E-12)
 number of electron       8.0000002 magnetization 
 augmentation part       -0.4579616 magnetization 

 Broyden mixing:
  rms(total) = 0.55401E-07    rms(broyden)= 0.55113E-07
  rms(prec ) = 0.10824E-06
  weight for this iteration     100.00

 eigenvalues of (default mixing * dielectric matrix)
  average eigenvalue GAMMA=   2.0335
  3.3184  2.8744  2.7310  2.7310  2.2313  2.4769  1.0099  1.0003  0.9810  0.9810

 Free energy of the ion-electron system (eV)
  ---------------------------------------------------
  alpha Z        PSCENC =         2.97356520
  Ewald energy   TEWEN  =      -219.35185245
  -Hartree energ DENC   =       -16.42048297
  -exchange      EXHF   =         0.00000000
  -V(xc)+E(xc)   XCENC  =       -18.51583314
  PAW double counting   =        70.76121186      -35.70095791
  entropy T*S    EENTRO =        -0.00000000
  eigenvalues    EBANDS =        -0.61965128
  atomic energy  EATOM  =       206.13311910
  ---------------------------------------------------
  free energy    TOTEN  =       -10.74088158 eV

  energy without entropy =      -10.74088158  energy(sigma->0) =      -10.74088158


--------------------------------------------------------------------------------------------------------




----------------------------------------- Iteration    1(  16)  ---------------------------------------


    POTLOK:  cpu time    0.02: real time    0.01
    SETDIJ:  cpu time    0.00: real time    0.00
     EDDAV:  cpu time    0.18: real time    0.19
       DOS:  cpu time    0.00: real time    0.00
    CHARGE:  cpu time    0.02: real time    0.02
    MIXING:  cpu time    0.00: real time    0.00
    --------------------------------------------
      LOOP:  cpu time    0.22: real time    0.23

 eigenvalue-minimisations  :   688
 total energy-change (2. order) : 0.1509761E-09  ( 0.1844130E-13)
 number of electron       8.0000002 magnetization 
 augmentation part       -0.4579616 magnetization 

 Broyden mixing:
  rms(total) = 0.15368E-07    rms(broyden)= 0.14300E-07
  rms(prec ) = 0.38395E-07
  weight for this iteration     100.00

 eigenvalues of (default mixing * dielectric matrix)
  average eigenvalue GAMMA=   1.9401
  3.3218  2.8439  2.8439  2.2350  2.5890  2.5119  1.0607  1.0295  0.9624  0.9624
  0.9806

 Free energy of the ion-electron system (eV)
  ---------------------------------------------------
  alpha Z        PSCENC =         2.97356520
  Ewald energy   TEWEN  =      -219.35185245
  -Hartree energ DENC   =       -16.42048252
  -exchange      EXHF   =         0.00000000
  -V(xc)+E(xc)   XCENC  =       -18.51583328
  PAW double counting   =        70.76121151      -35.70095741
  entropy T*S    EENTRO =        -0.00000000
  eigenvalues    EBANDS =        -0.61965175
  atomic energy  EATOM  =       206.13311910
  ---------------------------------------------------
  free energy    TOTEN  =       -10.74088158 eV

  energy without entropy =      -10.74088158  energy(sigma->0) =      -10.74088158


--------------------------------------------------------------------------------------------------------




----------------------------------------- Iteration    1(  17)  ---------------------------------------


    POTLOK:  cpu time    0.02: real time    0.01
    SETDIJ:  cpu time    0.00: real time    0.00
     EDDAV:  cpu time    0.18: real time    0.19
       DOS:  cpu time    0.00: real time    0.00
    --------------------------------------------
      LOOP:  cpu time    0.20: real time    0.21

 eigenvalue-minimisations  :   656
 total energy-change (2. order) : 0.3495870E-11  ( 0.3687515E-13)
 number of electron       8.0000002 magnetization 
 augmentation part       -0.4579616 magnetization 

 Free energy of the ion-electron system (eV)
  ---------------------------------------------------
  alpha Z        PSCENC =         2.97356520
  Ewald energy   TEWEN  =      -219.35185245
  -Hartree energ DENC   =       -16.42048272
  -exchange      EXHF   =         0.00000000
  -V(xc)+E(xc)   XCENC  =       -18.51583324
  PAW double counting   =        70.76121168      -35.70095758
  entropy T*S    EENTRO =        -0.00000000
  eigenvalues    EBANDS =        -0.61965158
  atomic energy  EATOM  =       206.13311910
  ---------------------------------------------------
  free energy    TOTEN  =       -10.74088158 eV

  energy without entropy =      -10.74088158  energy(sigma->0) =      -10.74088158


--------------------------------------------------------------------------------------------------------




 average (electrostatic) potential at core
  the test charge radii are     0.9892
  (the norm of the test charge is              1.0000)
       1 -84.5764       2 -84.5764
 
 
 
 E-fermi :   5.0257     XC(G=0):  -8.9342     alpha+bet :-10.5931


 k-point     1 :       0.0000    0.0000    0.0000
  band No.  band energies     occupation 
      1      -6.5071      2.00000
      2       4.6490      2.00000
      3       4.6490      2.00000
      4       4.6490      2.00000
      5       6.6652      0.00000
      6       7.1552      0.00000
      7       7.1552      0.00000
      8       7.1552      0.00000

 k-point     2 :       0.0833    0.0000    0.0000
  band No.  band energies     occupation 
      1      -6.4254      2.00000
      2       3.7645      2.00000
      3       4.5234      2.00000
      4       4.5234      2.00000
      5       6.8210      0.00000
      6       7.3407      0.00000
      7       7.3407      0.00000
      8       7.7530      0.00000

 k-point     3 :       0.1667    0.0000    0.0000
  band No.  band energies     occupation 
      1      -6.1832      2.00000
      2       2.3308      2.00000
      3       4.2497      2.00000
      4       4.2497      2.00000
      5       6.5576      0.00000
      6       7.7364      0.00000
      7       7.7364      0.00000
      8       9.1575      0.00000

 k-point     4 :       0.2500    0.0000    0.0000
  band No.  band energies     occupation 
      1      -5.7920      2.00000
      2       0.9161      2.00000
      3       3.9676      2.00000
      4       3.9676      2.00000
      5       6.2421      0.00000
      6       8.0440      0.00000
      7       8.0440      0.00000
      8      10.6065      0.00000

 k-point     5 :       0.3333    0.0000    0.0000
  band No.  band energies     occupation 
      1      -5.2823      2.00000
      2      -0.3542      2.00000
      3       3.7449      2.00000
      4       3.7449      2.00000
      5       5.9825      0.00000
      6       8.1118      0.00000
      7       8.1118      0.00000
      8      11.8793      0.00000

 k-point     6 :       0.4167    0.0000    0.0000
  band No.  band energies     occupation 
      1      -4.7471      2.00000
      2      -1.3547      2.00000
      3       3.6062      2.00000
      4       3.6062      2.00000
      5       5.8177      0.00000
      6       8.0549      0.00000
      7       8.0549      0.00000
      8      12.2295      0.00000

 k-point     7 :       0.5000    0.0000    0.0000
  band No.  band energies     occupation 
      1      -4.4704      2.00000
      2      -1.7879      2.00000
      3       3.5594      2.00000
      4       3.5594      2.00000
      5       5.7615      0.00000
      6       8.0198      0.00000
      7       8.0198      0.00000
      8      12.1968      0.00000

 k-point     8 :       0.0833    0.0833    0.0000
  band No.  band energies     occupation 
      1      -6.3980      2.00000
      2       3.8326      2.00000
      3       4.2806      2.00000
      4       4.2806      2.00000
      5       6.9110      0.00000
      6       7.4439      0.00000
      7       7.6585      0.00000
      8       7.6585      0.00000

 k-point     9 :       0.1667    0.0833    0.0000
  band No.  band energies     occupation 
      1      -6.2087      2.00000
      2       2.7050      2.00000
      3       3.9583      2.00000
      4       4.0829      2.00000
      5       6.9006      0.00000
      6       7.4123      0.00000
      7       8.1417      0.00000
      8       8.7868      0.00000

 k-point    10 :       0.2500    0.0833    0.0000
  band No.  band energies     occupation 
      1      -5.8655      2.00000
      2       1.3417      2.00000
      3       3.6737      2.00000
      4       3.7805      2.00000
      5       6.8203      0.00000
      6       7.5936      0.00000
      7       8.5205      0.00000
      8       9.7093      0.00000

 k-point    11 :       0.3333    0.0833    0.0000
  band No.  band energies     occupation 
      1      -5.3900      2.00000
      2       0.0478      2.00000
      3       3.4559      2.00000
      4       3.4780      2.00000
      5       6.5863      0.00000
      6       7.8348      0.00000
      7       8.6075      0.00000
      8      10.3799      0.00000

 k-point    12 :       0.4167    0.0833    0.0000
  band No.  band energies     occupation 
      1      -4.8446      2.00000
      2      -1.0466      2.00000
      3       3.1869      2.00000
      4       3.3892      2.00000
      5       6.3994      0.00000
      6       7.8949      0.00000
      7       8.4850      0.00000
      8      11.3361      0.00000

 k-point    13 :       0.5000    0.0833    0.0000
  band No.  band energies     occupation 
      1      -4.4323      2.00000
      2      -1.7121      2.00000
      3       3.0057      2.00000
      4       3.4096      2.00000
      5       6.3062      0.00000
      6       7.9332      0.00000
      7       8.3292      0.00000
      8      12.2255      0.00000

 k-point    14 :      -0.4167    0.0833    0.0000
  band No.  band energies     occupation 
      1      -4.5319      2.00000
      2      -1.5608      2.00000
      3       2.9286      2.00000
      4       3.5329      2.00000
      5       6.3192      0.00000
      6       8.0436      0.00000
      7       8.2266      0.00000
      8      12.3205      0.00000

 k-point    15 :      -0.3333    0.0833    0.0000
  band No.  band energies     occupation 
      1      -5.0279      2.00000
      2      -0.7105      2.00000
      3       2.9663      2.00000
      4       3.7455      2.00000
      5       6.4378      0.00000
      6       8.1640      0.00000
      7       8.2068      0.00000
      8      11.6044      0.00000

 k-point    16 :      -0.2500    0.0833    0.0000
  band No.  band energies     occupation 
      1      -5.5620      2.00000
      2       0.4644      2.00000
      3       3.1272      2.00000
      4       4.0237      2.00000
      5       6.6498      0.00000
      6       8.0284      0.00000
      7       8.2760      0.00000
      8      10.5815      0.00000

 k-point    17 :      -0.1667    0.0833    0.0000
  band No.  band energies     occupation 
      1      -5.9969      2.00000
      2       1.7795      2.00000
      3       3.4225      2.00000
      4       4.3202      2.00000
      5       6.9186      0.00000
      6       7.7136      0.00000
      7       7.9915      0.00000
      8       9.6527      0.00000

 k-point    18 :      -0.0833    0.0833    0.0000
  band No.  band energies     occupation 
      1      -6.2900      2.00000
      2       3.0237      2.00000
      3       3.9064      2.00000
      4       4.5344      2.00000
      5       7.0715      0.00000
      6       7.3833      0.00000
      7       7.4899      0.00000
      8       8.6263      0.00000

 k-point    19 :       0.1667    0.1667    0.0000
  band No.  band energies     occupation 
      1      -6.0724      2.00000
      2       2.4860      2.00000
      3       3.6069      2.00000
      4       3.6069      2.00000
      5       6.3909      0.00000
      6       8.2679      0.00000
      7       8.7314      0.00000
      8       8.7314      0.00000

 k-point    20 :       0.2500    0.1667    0.0000
  band No.  band energies     occupation 
      1      -5.7794      2.00000
      2       1.5193      2.00000
      3       3.2634      2.00000
      4       3.3056      2.00000
      5       6.4042      0.00000
      6       8.1154      0.00000
      7       9.1611      0.00000
      8       9.2544      0.00000

 k-point    21 :       0.3333    0.1667    0.0000
  band No.  band energies     occupation 
      1      -5.3447      2.00000
      2       0.3631      2.00000
      3       2.8354      2.00000
      4       3.1044      2.00000
      5       6.6072      0.00000
      6       8.2515      0.00000
      7       9.1160      0.00000
      8       9.4652      0.00000

 k-point    22 :       0.4167    0.1667    0.0000
  band No.  band energies     occupation 
      1      -4.8102      2.00000
      2      -0.7249      2.00000
      3       2.4312      2.00000
      4       3.0228      2.00000
      5       6.6269      0.00000
      6       8.4845      0.00000
      7       9.3645      0.00000
      8       9.5652      0.00000

 k-point    23 :       0.5000    0.1667    0.0000
  band No.  band energies     occupation 
      1      -4.3119      2.00000
      2      -1.5338      2.00000
      3       2.1218      2.00000
      4       3.0646      2.00000
      5       6.6246      0.00000
      6       8.4518      0.00000
      7       9.1495      0.00000
      8      10.7437      0.00000

 k-point    24 :      -0.4167    0.1667    0.0000
  band No.  band energies     occupation 
      1      -4.2185      2.00000
      2      -1.6672      2.00000
      3       1.9392      2.00000
      4       3.2235      2.00000
      5       6.7103      0.00000
      6       8.4582      0.00000
      7       8.9462      0.00000
      8      12.1315      0.00000

 k-point    25 :      -0.3333    0.1667    0.0000
  band No.  band energies     occupation 
      1      -4.6403      2.00000
      2      -1.0159      2.00000
      3       1.9084      2.00000
      4       3.4822      2.00000
      5       6.8913      0.00000
      6       8.5522      0.00000
      7       8.7632      0.00000
      8      11.3528      0.00000

 k-point    26 :      -0.2500    0.1667    0.0000
  band No.  band energies     occupation 
      1      -5.1857      2.00000
      2      -0.0120      2.00000
      3       2.0709      2.00000
      4       3.8067      2.00000
      5       7.1241      0.00000
      6       8.4942      0.00000
      7       8.6189      0.00000
      8      10.2592      0.00000

 k-point    27 :      -0.1667    0.1667    0.0000
  band No.  band energies     occupation 
      1      -5.6575      2.00000
      2       1.0110      2.00000
      3       2.5369      2.00000
      4       4.1283      2.00000
      5       7.2706      0.00000
      6       8.0640      0.00000
      7       8.2812      0.00000
      8       9.8166      0.00000

 k-point    28 :       0.2500    0.2500    0.0000
  band No.  band energies     occupation 
      1      -5.5362      2.00000
      2       1.0950      2.00000
      3       2.9817      2.00000
      4       2.9817      2.00000
      5       5.8835      0.00000
      6       7.7178      0.00000
      7      10.0072      0.00000
      8      10.0072      0.00000

 k-point    29 :       0.3333    0.2500    0.0000
  band No.  band energies     occupation 
      1      -5.1460      2.00000
      2       0.2763      2.00000
      3       2.5652      2.00000
      4       2.7580      2.00000
      5       5.9617      0.00000
      6       7.4406      0.00000
      7      10.2131      0.00000
      8      10.4786      0.00000

 k-point    30 :       0.4167    0.2500    0.0000
  band No.  band energies     occupation 
      1      -4.6364      2.00000
      2      -0.6314      2.00000
      3       2.0001      2.00000
      4       2.6578      2.00000
      5       6.1786      0.00000
      6       7.8534      0.00000
      7      10.0404      0.00000
      8      10.5126      0.00000

 k-point    31 :       0.5000    0.2500    0.0000
  band No.  band energies     occupation 
      1      -4.0951      2.00000
      2      -1.4337      2.00000
      3       1.5094      2.00000
      4       2.6882      2.00000
      5       6.2622      0.00000
[...]
      8      11.7602      0.00000

 k-point    37 :       0.5000    0.3333    0.0000
  band No.  band energies     occupation 
      1      -3.7698      2.00000
      2      -1.6707      2.00000
      3       1.4660      2.00000
      4       2.3781      2.00000
      5       5.8750      0.00000
      6       7.3706      0.00000
      7      11.4593      0.00000
      8      11.6519      0.00000

 k-point    38 :      -0.4167    0.3333    0.0000
  band No.  band energies     occupation 
      1      -3.3767      2.00000
      2      -2.0924      2.00000
      3       0.9694      2.00000
      4       2.5133      2.00000
      5       6.0294      0.00000
      6       8.6913      0.00000
      7      11.3004      0.00000
      8      11.3194      0.00000

 k-point    39 :      -0.3333    0.3333    0.0000
  band No.  band energies     occupation 
      1      -3.6231      2.00000
      2      -1.8272      2.00000
      3       0.7938      2.00000
      4       2.7684      2.00000
      5       6.3027      0.00000
      6      10.2738      0.00000
      7      10.7032      0.00000
      8      11.1382      0.00000

 k-point    40 :       0.4167    0.4167    0.0000
  band No.  band energies     occupation 
      1      -3.8780      2.00000
      2      -1.5808      2.00000
      3       2.2107      2.00000
      4       2.2107      2.00000
      5       5.4204      0.00000
      6       6.0230      0.00000
      7      12.7679      0.00000
      8      12.7679      0.00000

 k-point    41 :       0.5000    0.4167    0.0000
  band No.  band energies     occupation 
      1      -3.3324      2.00000
      2      -2.2009      2.00000
      3       1.8495      2.00000
      4       2.1793      2.00000
      5       5.6206      0.00000
      6       6.1370      0.00000
      7      13.0028      0.00000
      8      13.0100      0.00000

 k-point    42 :      -0.4167    0.4167    0.0000
  band No.  band energies     occupation 
      1      -2.9501      2.00000
      2      -2.5522      2.00000
      3       1.2869      2.00000
      4       2.2831      2.00000
      5       5.7670      0.00000
      6       7.2052      0.00000
      7      12.4975      0.00000
      8      12.7474      0.00000

 k-point    43 :       0.5000    0.5000    0.0000
  band No.  band energies     occupation 
      1      -2.7950      2.00000
      2      -2.7950      2.00000
      3       2.1113      2.00000
      4       2.1113      2.00000
      5       5.5742      0.00000
      6       5.5742      0.00000
      7      13.7372      0.00000
      8      13.7372      0.00000

 k-point    44 :       0.2500    0.1667    0.0833
  band No.  band energies     occupation 
      1      -5.9680      2.00000
      2       1.9188      2.00000
      3       3.2248      2.00000
      4       3.9969      2.00000
      5       6.9500      0.00000
      6       7.6586      0.00000
      7       8.5659      0.00000
      8       9.2505      0.00000

 k-point    45 :       0.3333    0.1667    0.0833
  band No.  band energies     occupation 
      1      -5.5787      2.00000
      2       0.8010      2.00000
      3       2.7249      2.00000
      4       3.7552      2.00000
      5       7.1305      0.00000
      6       7.7586      0.00000
      7       8.9669      0.00000
      8       9.4279      0.00000

 k-point    46 :       0.4167    0.1667    0.0833
  band No.  band energies     occupation 
      1      -5.0702      2.00000
      2      -0.3521      2.00000
      3       2.4504      2.00000
      4       3.4709      2.00000
      5       7.0385      0.00000
      6       7.9059      0.00000
      7       9.0460      0.00000
      8      10.0040      0.00000

 k-point    47 :       0.5000    0.1667    0.0833
  band No.  band energies     occupation 
      1      -4.5327      2.00000
      2      -1.3070      2.00000
      3       2.3131      2.00000
      4       3.2597      2.00000
      5       6.9238      0.00000
      6       7.8692      0.00000
      7       9.0011      0.00000
      8      11.0765      0.00000

 k-point    48 :      -0.4167    0.1667    0.0833
  band No.  band energies     occupation 
      1      -4.2513      2.00000
      2      -1.7313      2.00000
      3       2.2724      2.00000
      4       3.1822      2.00000
      5       6.8812      0.00000
      6       7.8328      0.00000
      7       8.9692      0.00000
      8      12.2051      0.00000

 k-point    49 :       0.3333    0.2500    0.0833
  band No.  band energies     occupation 
      1      -5.4386      2.00000
      2       0.7656      2.00000
      3       2.6024      2.00000
      4       3.1959      2.00000
      5       6.4669      0.00000
      6       7.9795      0.00000
      7       9.2020      0.00000
      8       9.9048      0.00000

 k-point    50 :       0.4167    0.2500    0.0833
  band No.  band energies     occupation 
      1      -4.9656      2.00000
      2      -0.1718      2.00000
      3       2.1063      2.00000
      4       2.9504      2.00000
      5       6.7708      0.00000
      6       8.2082      0.00000
      7       8.9689      0.00000
      8      10.2845      0.00000

 k-point    51 :       0.5000    0.2500    0.0833
  band No.  band energies     occupation 
      1      -4.4185      2.00000
      2      -1.0902      2.00000
      3       1.7615      2.00000
      4       2.7727      2.00000
      5       6.8771      0.00000
      6       8.6038      0.00000
      7       9.2372      0.00000
      8      10.3022      0.00000

 k-point    52 :      -0.4167    0.2500    0.0833
  band No.  band energies     occupation 
      1      -3.9988      2.00000
      2      -1.6905      2.00000
      3       1.5338      2.00000
      4       2.7573      2.00000
      5       6.9722      0.00000
      6       8.4032      0.00000
      7      10.1437      0.00000
      8      10.6254      0.00000

 k-point    53 :      -0.3333    0.2500    0.0833
  band No.  band energies     occupation 
      1      -4.1133      2.00000
      2      -1.5318      2.00000
      3       1.4404      2.00000
      4       2.9052      2.00000
      5       7.1588      0.00000
      6       8.2654      0.00000
      7      10.0577      0.00000
      8      11.0120      0.00000

 k-point    54 :      -0.2500    0.2500    0.0833
  band No.  band energies     occupation 
      1      -4.6203      2.00000
      2      -0.7784      2.00000
      3       1.5354      2.00000
      4       3.1786      2.00000
      5       7.4197      0.00000
      6       8.1523      0.00000
      7       9.6170      0.00000
      8      10.1394      0.00000

 k-point    55 :      -0.1667    0.2500    0.0833
  band No.  band energies     occupation 
      1      -5.1508      2.00000
      2       0.0929      2.00000
      3       1.9271      2.00000
      4       3.5075      2.00000
      5       7.6661      0.00000
      6       7.7475      0.00000
      7       9.2005      0.00000
      8       9.6494      0.00000

 k-point    56 :       0.4167    0.3333    0.0833
  band No.  band energies     occupation 
      1      -4.7139      2.00000
      2      -0.4233      2.00000
      3       2.1455      2.00000
      4       2.5213      2.00000
      5       6.1237      0.00000
      6       7.1855      0.00000
      7      10.2614      0.00000
      8      11.3314      0.00000

 k-point    57 :       0.5000    0.3333    0.0833
  band No.  band energies     occupation 
      1      -4.1792      2.00000
      2      -1.1737      2.00000
      3       1.6321      2.00000
      4       2.3359      2.00000
      5       6.4463      0.00000
      6       7.6418      0.00000
      7       9.9996      0.00000
      8      11.6712      0.00000

 k-point    58 :      -0.4167    0.3333    0.0833
  band No.  band energies     occupation 
      1      -3.6722      2.00000
      2      -1.7949      2.00000
      3       1.1767      2.00000
      4       2.3409      2.00000
      5       6.5895      0.00000
      6       8.8357      0.00000
      7       9.7254      0.00000
      8      11.5750      0.00000

 k-point    59 :      -0.3333    0.3333    0.0833
  band No.  band energies     occupation 
      1      -3.6201      2.00000
      2      -1.8481      2.00000
      3       0.9305      2.00000
      4       2.5130      2.00000
      5       6.8059      0.00000
      6       9.4781      0.00000
      7      10.3595      0.00000
      8      10.8710      0.00000

 k-point    60 :      -0.2500    0.3333    0.0833
  band No.  band energies     occupation 
      1      -4.0849      2.00000
      2      -1.3243      2.00000
      3       1.0106      2.00000
      4       2.8137      2.00000
      5       7.1247      0.00000
      6       9.0728      0.00000
      7       9.8273      0.00000
      8      11.0673      0.00000

 k-point    61 :       0.5000    0.4167    0.0833
  band No.  band energies     occupation 
      1      -3.8136      2.00000
      2      -1.6190      2.00000
      3       1.8927      2.00000
      4       2.0712      2.00000
      5       5.9913      0.00000
      6       6.5080      0.00000
      7      11.5349      0.00000
      8      12.7440      0.00000

 k-point    62 :      -0.4167    0.4167    0.0833
  band No.  band energies     occupation 
      1      -3.2630      2.00000
      2      -2.1989      2.00000
      3       1.3664      2.00000
      4       2.0310      2.00000
      5       6.2741      0.00000
      6       7.2958      0.00000
      7      11.2608      0.00000
      8      12.5138      0.00000

 k-point    63 :      -0.3333    0.4167    0.0833
  band No.  band energies     occupation 
      1      -3.1502      2.00000
      2      -2.2839      2.00000
      3       0.9435      2.00000
      4       2.2039      2.00000
      5       6.4808      0.00000
      6       8.7011      0.00000
      7      10.8478      0.00000
      8      11.1952      0.00000

 k-point    64 :      -0.4167    0.5000    0.0833
  band No.  band energies     occupation 
      1      -2.7676      2.00000
      2      -2.7676      2.00000
      3       1.8636      2.00000
      4       1.8636      2.00000
      5       6.1105      0.00000
      6       6.1105      0.00000
      7      12.8364      0.00000
      8      12.8364      0.00000

 k-point    65 :       0.5000    0.3333    0.1667
  band No.  band energies     occupation 
      1      -4.4662      2.00000
      2      -0.8189      2.00000
      3       1.5124      2.00000
      4       2.6316      2.00000
      5       7.4385      0.00000
      6       8.2477      0.00000
      7       8.6409      0.00000
      8      11.2151      0.00000

 k-point    66 :      -0.4167    0.3333    0.1667
  band No.  band energies     occupation 
      1      -3.9221      2.00000
      2      -1.5037      2.00000
      3       1.1986      2.00000
      4       2.3451      2.00000
      5       7.7924      0.00000
      6       8.2692      0.00000
      7       9.1507      0.00000
      8      11.5956      0.00000

 k-point    67 :      -0.3333    0.3333    0.1667
  band No.  band energies     occupation 
      1      -3.6170      2.00000
      2      -1.8685      2.00000
      3       1.1078      2.00000
      4       2.2350      2.00000
      5       7.9382      0.00000
      6       8.0445      0.00000
      7      10.4608      0.00000
      8      10.6773      0.00000

 k-point    68 :      -0.4167    0.4167    0.1667
  band No.  band energies     occupation 
      1      -3.6359      2.00000
      2      -1.7536      2.00000
      3       1.3447      2.00000
      4       1.8999      2.00000
      5       7.3044      0.00000
      6       7.7198      0.00000
      7       9.6710      0.00000
      8      12.2809      0.00000

 k-point    69 :      -0.3333    0.4167    0.1667
  band No.  band energies     occupation 
      1      -3.1847      2.00000
      2      -2.2062      2.00000
      3       1.0823      2.00000
      4       1.7647      2.00000
      5       7.6332      0.00000
      6       8.8559      0.00000
      7       9.3816      0.00000
      8      10.7137      0.00000

 k-point    70 :      -0.2500    0.4167    0.1667
  band No.  band energies     occupation 
      1      -3.3922      2.00000
      2      -1.9938      2.00000
      3       0.9733      2.00000
      4       1.9590      2.00000
      5       7.9056      0.00000
      6       8.9641      0.00000
      7       9.3502      0.00000
      8      10.4848      0.00000

 k-point    71 :      -0.3333    0.5000    0.1667
  band No.  band energies     occupation 
      1      -2.7099      2.00000
      2      -2.7099      2.00000
      3       1.4640      2.00000
      4       1.4640      2.00000
      5       7.3892      0.00000
      6       7.3892      0.00000
      7      10.9525      0.00000
      8      10.9525      0.00000

 k-point    72 :      -0.2500    0.5000    0.2500
  band No.  band energies     occupation 
      1      -2.6794      2.00000
      2      -2.6794      2.00000
      3       1.2927      2.00000
      4       1.2927      2.00000
      5       8.9202      0.00000
      6       8.9202      0.00000
      7       9.2055      0.00000
      8       9.2055      0.00000


--------------------------------------------------------------------------------------------------------


 soft charge-density along one line, spin component           1
         0         1         2         3         4         5         6         7         8         9
 total charge-density along one line
 
 pseudopotential strength for first ion, spin component:           1
 18.549   0.000   0.000   0.000   0.000  -0.000  -0.000  -0.000
  0.000   0.006  -0.000  -0.000  -0.000   0.000   0.000   0.000
  0.000  -0.000   4.192  -0.000  -0.000  -0.004   0.000   0.000
  0.000  -0.000  -0.000   4.192  -0.000   0.000  -0.004   0.000
  0.000  -0.000  -0.000  -0.000   4.192   0.000   0.000  -0.004
 -0.000   0.000  -0.004   0.000   0.000   0.005  -0.000  -0.000
 -0.000   0.000   0.000  -0.004   0.000  -0.000   0.005  -0.000
 -0.000   0.000   0.000   0.000  -0.004  -0.000  -0.000   0.005
 total augmentation occupancy for first ion, spin component:           1
  1.520  -0.616  -0.000   0.000   0.000   0.000   0.000   0.000
 -0.616   0.575  -0.000  -0.000  -0.000   0.000   0.000  -0.000
 -0.000  -0.000   0.951   0.000   0.000  -0.471  -0.000   0.000
  0.000  -0.000   0.000   0.951  -0.000  -0.000  -0.471   0.000
  0.000  -0.000  -0.000   0.000   0.951   0.000   0.000  -0.471
  0.000   0.000  -0.471  -0.000   0.000   0.278   0.000  -0.000
  0.000   0.000  -0.000  -0.471   0.000   0.000   0.278   0.000
  0.000   0.000   0.000   0.000  -0.471  -0.000  -0.000   0.278


------------------------ aborting loop because EDIFF is reached ----------------------------------------


    CHARGE:  cpu time    0.02: real time    0.02
    FORLOC:  cpu time    0.00: real time    0.00
    FORNL :  cpu time    0.04: real time    0.04
    STRESS:  cpu time    0.29: real time    0.30
    FORCOR:  cpu time    0.02: real time    0.01
    FORHAR:  cpu time    0.00: real time    0.00
    MIXING:  cpu time    0.00: real time    0.00
    OFIELD:  cpu time    0.00: real time    0.00

  FORCE on cell =-STRESS in cart. coord.  units (eV):
  Direction    XX          YY          ZZ          XY          YZ          ZX
  --------------------------------------------------------------------------------------
  Alpha Z     2.97357     2.97357     2.97357
  Ewald     -73.11732   -73.11732   -73.11732    -0.00000    -0.00000    -0.00000
  Hartree     5.47349     5.47349     5.47349    -0.00000    -0.00000    -0.00000
  E(xc)     -24.68950   -24.68950   -24.68950    -0.00000    -0.00000    -0.00000
  Local     -31.00677   -31.00677   -31.00677     0.00001     0.00001     0.00001
  n-local    76.86076    78.28268    72.62081     1.99851    -1.14091     0.44142
  augment   -11.67111   -11.67111   -11.67111    -0.00001    -0.00001    -0.00001
  Kinetic    56.21166    54.39447    51.59812     3.57652    -0.84616     1.03040
  Fock        0.00000     0.00000     0.00000     0.00000     0.00000     0.00000
  -------------------------------------------------------------------------------------
  Total      -2.04813    -2.04813    -2.04813     0.00000     0.00000     0.00000
  in kB     -72.46547   -72.46547   -72.46547     0.00000     0.00000     0.00000
  external pressure =      -72.47 kB  Pullay stress =        0.00 kB


 VOLUME and BASIS-vectors are now :
 -----------------------------------------------------------------------------
  energy-cutoff  :      600.00
  volume of cell :       45.28
      direct lattice vectors                 reciprocal lattice vectors
     0.000000000  2.829016319  2.829016319    -0.176739878  0.176739878  0.176739878
     2.829016319  0.000000000  2.829016319     0.176739878 -0.176739878  0.176739878
     2.829016319  2.829016319  0.000000000     0.176739878  0.176739878 -0.176739878

  length of vectors
     4.000833247  4.000833247  4.000833247     0.306122449  0.306122449  0.306122449


 FORCES acting on ions
    electron-ion (+dipol)            ewald-force                    non-local-force                 convergence-correction
 -----------------------------------------------------------------------------------------------
   0.182E-06 0.182E-06 0.200E-06   0.667E-14 0.984E-14 0.106E-13   -.763E-16 -.132E-15 -.694E-16   0.198E-12 0.201E-12 0.204E-12
   -.182E-06 -.182E-06 -.200E-06   -.671E-14 -.983E-14 -.108E-13   0.971E-16 0.104E-15 0.729E-16   -.205E-12 -.205E-12 -.206E-12
 -----------------------------------------------------------------------------------------------
   -.389E-13 0.810E-14 0.481E-13   -.357E-16 0.101E-16 -.269E-15   0.208E-16 -.278E-16 0.347E-17   -.701E-14 -.478E-14 -.160E-14
 
 
 POSITION                                       TOTAL-FORCE (eV/Angst)
 -----------------------------------------------------------------------------------
      0.00000      0.00000      0.00000         0.000000      0.000000      0.000000
      1.41451      1.41451      1.41451        -0.000000     -0.000000     -0.000000
 -----------------------------------------------------------------------------------
    total drift:                               -0.000000      0.000000      0.000000


--------------------------------------------------------------------------------------------------------



  FREE ENERGIE OF THE ION-ELECTRON SYSTEM (eV)
  ---------------------------------------------------
  free  energy   TOTEN  =       -10.74088158 eV

  energy  without entropy=      -10.74088158  energy(sigma->0) =      -10.74088158
 


--------------------------------------------------------------------------------------------------------


    POTLOK:  cpu time    0.02: real time    0.02


--------------------------------------------------------------------------------------------------------


 writing wavefunctions
     LOOP+:  cpu time    6.17: real time    6.66
    4ORBIT:  cpu time    0.00: real time    0.00

 total amount of memory used by VASP on root node    43687. kBytes
========================================================================

   base      :      30000. kBytes
   nonl-proj :       7145. kBytes
   fftplans  :       1025. kBytes
   grid      :       1926. kBytes
   one-center:          6. kBytes
   wavefun   :       3585. kBytes
 
  
  
 General timing and accounting informations for this job:
 ========================================================
  
                  Total CPU time used (sec):        6.504
                            User time (sec):        6.240
                          System time (sec):        0.264
                         Elapsed time (sec):        7.097
  
                   Maximum memory used (kb):       49204.
                   Average memory used (kb):           0.
  
                          Minor page faults:         7361
                          Major page faults:            7
                 Voluntary context switches:          567
