 vasp.5.3.5 31Mar14 (build Jun 01 2017 17:55:53) complex                        
  
 executed on             LinuxIFC date 2020.11.10  15:19:25
 running on    4 total cores
 distrk:  each k-point on    4 cores,    1 groups
 distr:  one band on NCORES_PER_BAND=   1 cores,    4 groups


--------------------------------------------------------------------------------------------------------


 INCAR:
 POTCAR:   PAW_PBE Si 05Jan2001                   
 POTCAR:   PAW_PBE Si 05Jan2001                   
   VRHFIN =Si: s2p2                                                             
   LEXCH  = PE                                                                  
   EATOM  =   103.0669 eV,    7.5752 Ry                                         
                                                                                
   TITEL  = PAW_PBE Si 05Jan2001                                                
   LULTRA =        F    use ultrasoft PP ?                                      
   IUNSCR =        1    unscreen: 0-lin 1-nonlin 2-no                           
   RPACOR =    1.500    partial core radius                                     
   POMASS =   28.085; ZVAL   =    4.000    mass and valenz                      
   RCORE  =    1.900    outmost cutoff radius                                   
   RWIGS  =    2.480; RWIGS  =    1.312    wigner-seitz radius (au A)           
   ENMAX  =  245.345; ENMIN  =  184.009 eV                                      
   ICORE  =        2    local potential                                         
   LCOR   =        T    correct aug charges                                     
   LPAW   =        T    paw PP                                                  
   EAUG   =  322.069                                                            
   DEXC   =    -.007                                                            
   RMAX   =    2.944    core radius for proj-oper                               
   RAUG   =    1.300    factor for augmentation sphere                          
   RDEP   =    1.993    radius for radial grids                                 
   QCUT   =   -4.246; QGAM   =    8.493    optimization parameters              
                                                                                
   Description                                                                  
     l     E      TYP  RCUT    TYP  RCUT                                        
     0   .000     23  1.900                                                     
     0   .000     23  1.900                                                     
     1   .000     23  1.900                                                     
     1   .000     23  1.900                                                     
     2   .000      7  1.900                                                     
  local pseudopotential read in
  partial core-charges read in
  atomic valenz-charges read in
  non local Contribution for L=           0  read in
    real space projection operators read in
  non local Contribution for L=           0  read in
    real space projection operators read in
  non local Contribution for L=           1  read in
    real space projection operators read in
  non local Contribution for L=           1  read in
    real space projection operators read in
    PAW grid and wavefunctions read in
 
   number of l-projection  operators is LMAX  =           4
   number of lm-projection operators is LMMAX =           8
 
 PAW_PBE Si 05Jan2001                   :
 energy of atom  1       EATOM= -103.0669
 kinetic energy error for atom=    0.0003 (will be added to EATOM!!)
 
 
 POSCAR: Si
  positions in direct lattice
  velocities in cartesian coordinates
  No initial velocities read in
 exchange correlation table for  LEXCH =        8
   RHO(1)=    0.500       N(1)  =     2000
   RHO(2)=  100.500       N(2)  =     4000
 


--------------------------------------------------------------------------------------------------------


 ion  position               nearest neighbor table
   1  0.000  0.000  0.000-   2 2.90   2 2.90   2 2.90   2 2.90
   2  0.250  0.250  0.250-   1 2.90   1 2.90   1 2.90   1 2.90
 
  LATTYP: Found a face centered cubic cell.
 ALAT       =     6.6972631226
  
  Lattice vectors:
  
 A1 = (   0.0000000000,   3.3486315613,   3.3486315613)
 A2 = (   3.3486315613,   0.0000000000,   3.3486315613)
 A3 = (   3.3486315613,   3.3486315613,   0.0000000000)


Analysis of symmetry for initial positions (statically):
=====================================================================
 Subroutine PRICEL returns:
 Original cell was already a primitive cell.
 

 Routine SETGRP: Setting up the symmetry group for a 
 face centered cubic supercell.


 Subroutine GETGRP returns: Found 48 space group operations
 (whereof 24 operations were pure point group operations)
 out of a pool of 48 trial point group operations.


The static configuration has the point symmetry T_d .
 The point group associated with its full space group is O_h .


Analysis of symmetry for dynamics (positions and initial velocities):
=====================================================================
 Subroutine PRICEL returns:
 Original cell was already a primitive cell.
 

 Routine SETGRP: Setting up the symmetry group for a 
 face centered cubic supercell.


 Subroutine GETGRP returns: Found 48 space group operations
 (whereof 24 operations were pure point group operations)
 out of a pool of 48 trial point group operations.


The dynamic configuration has the point symmetry T_d .
 The point group associated with its full space group is O_h .


Analysis of constrained symmetry for selective dynamics:
=====================================================================
 Subroutine PRICEL returns:
 Original cell was already a primitive cell.
 

 Routine SETGRP: Setting up the symmetry group for a 
 face centered cubic supercell.


 Subroutine GETGRP returns: Found 48 space group operations
 (whereof 24 operations were pure point group operations)
 out of a pool of 48 trial point group operations.


The constrained configuration has the point symmetry T_d .
 The point group associated with its full space group is O_h .
 
 
 KPOINTS: Gamma centered Monkhorst-Pack           

Automatic generation of k-mesh.
Space group operators:
 irot       det(A)        alpha          n_x          n_y          n_z        tau_x        tau_y        tau_z
    1     1.000000     0.000000     1.000000     0.000000     0.000000     0.000000     0.000000     0.000000
    2     1.000000   120.000000    -0.577350    -0.577350    -0.577350     0.000000     0.000000     0.000000
    3     1.000000   120.000000     0.577350     0.577350     0.577350     0.000000     0.000000     0.000000
    4    -1.000000    90.000000     0.000000     0.000000    -1.000000     0.000000     0.000000     0.000000
    5    -1.000000   180.000000     0.000000     0.707107     0.707107     0.000000     0.000000     0.000000
    6    -1.000000    90.000000     0.000000     1.000000     0.000000     0.000000     0.000000     0.000000
    7     1.000000   180.000000     0.000000     0.000000     1.000000     0.000000     0.000000     0.000000
    8     1.000000   120.000000    -0.577350     0.577350     0.577350     0.000000     0.000000     0.000000
    9     1.000000   120.000000    -0.577350     0.577350    -0.577350     0.000000     0.000000     0.000000
   10    -1.000000    90.000000     0.000000     0.000000     1.000000     0.000000     0.000000     0.000000
   11    -1.000000    90.000000    -1.000000     0.000000     0.000000     0.000000     0.000000     0.000000
   12    -1.000000   180.000000     0.707107     0.000000     0.707107     0.000000     0.000000     0.000000
   13     1.000000   120.000000     0.577350    -0.577350     0.577350     0.000000     0.000000     0.000000
   14     1.000000   120.000000    -0.577350    -0.577350     0.577350     0.000000     0.000000     0.000000
   15     1.000000   180.000000     1.000000     0.000000     0.000000     0.000000     0.000000     0.000000
   16    -1.000000    90.000000     0.000000    -1.000000     0.000000     0.000000     0.000000     0.000000
   17    -1.000000   180.000000     0.707107     0.707107     0.000000     0.000000     0.000000     0.000000
   18    -1.000000    90.000000     1.000000     0.000000     0.000000     0.000000     0.000000     0.000000
   19     1.000000   120.000000     0.577350    -0.577350    -0.577350     0.000000     0.000000     0.000000
   20     1.000000   180.000000     0.000000     1.000000     0.000000     0.000000     0.000000     0.000000
   21     1.000000   120.000000     0.577350     0.577350    -0.577350     0.000000     0.000000     0.000000
   22    -1.000000   180.000000     0.000000    -0.707107     0.707107     0.000000     0.000000     0.000000
   23    -1.000000   180.000000     0.707107    -0.707107     0.000000     0.000000     0.000000     0.000000
   24    -1.000000   180.000000     0.707107     0.000000    -0.707107     0.000000     0.000000     0.000000
   25    -1.000000     0.000000     1.000000     0.000000     0.000000     0.250000     0.250000     0.250000
   26    -1.000000   120.000000    -0.577350    -0.577350    -0.577350     0.250000     0.250000     0.250000
   27    -1.000000   120.000000     0.577350     0.577350     0.577350     0.250000     0.250000     0.250000
   28     1.000000    90.000000     0.000000     0.000000    -1.000000     0.250000     0.250000     0.250000
   29     1.000000   180.000000     0.000000     0.707107     0.707107     0.250000     0.250000     0.250000
   30     1.000000    90.000000     0.000000     1.000000     0.000000     0.250000     0.250000     0.250000
   31    -1.000000   180.000000     0.000000     0.000000     1.000000     0.250000     0.250000     0.250000
   32    -1.000000   120.000000    -0.577350     0.577350     0.577350     0.250000     0.250000     0.250000
   33    -1.000000   120.000000    -0.577350     0.577350    -0.577350     0.250000     0.250000     0.250000
   34     1.000000    90.000000     0.000000     0.000000     1.000000     0.250000     0.250000     0.250000
   35     1.000000    90.000000    -1.000000     0.000000     0.000000     0.250000     0.250000     0.250000
   36     1.000000   180.000000     0.707107     0.000000     0.707107     0.250000     0.250000     0.250000
   37    -1.000000   120.000000     0.577350    -0.577350     0.577350     0.250000     0.250000     0.250000
   38    -1.000000   120.000000    -0.577350    -0.577350     0.577350     0.250000     0.250000     0.250000
   39    -1.000000   180.000000     1.000000     0.000000     0.000000     0.250000     0.250000     0.250000
   40     1.000000    90.000000     0.000000    -1.000000     0.000000     0.250000     0.250000     0.250000
   41     1.000000   180.000000     0.707107     0.707107     0.000000     0.250000     0.250000     0.250000
   42     1.000000    90.000000     1.000000     0.000000     0.000000     0.250000     0.250000     0.250000
   43    -1.000000   120.000000     0.577350    -0.577350    -0.577350     0.250000     0.250000     0.250000
   44    -1.000000   180.000000     0.000000     1.000000     0.000000     0.250000     0.250000     0.250000
   45    -1.000000   120.000000     0.577350     0.577350    -0.577350     0.250000     0.250000     0.250000
   46     1.000000   180.000000     0.000000    -0.707107     0.707107     0.250000     0.250000     0.250000
   47     1.000000   180.000000     0.707107    -0.707107     0.000000     0.250000     0.250000     0.250000
   48     1.000000   180.000000     0.707107     0.000000    -0.707107     0.250000     0.250000     0.250000
 
 Subroutine IBZKPT returns following result:
 ===========================================
 
 Found     72 irreducible k-points:
 
 Following reciprocal coordinates:
            Coordinates               Weight
  0.000000  0.000000  0.000000      1.000000
  0.083333  0.000000  0.000000      8.000000
  0.166667  0.000000  0.000000      8.000000
  0.250000  0.000000  0.000000      8.000000
  0.333333  0.000000  0.000000      8.000000
  0.416667  0.000000  0.000000      8.000000
  0.500000  0.000000  0.000000      4.000000
  0.083333  0.083333  0.000000      6.000000
  0.166667  0.083333  0.000000     24.000000
  0.250000  0.083333  0.000000     24.000000
  0.333333  0.083333  0.000000     24.000000
  0.416667  0.083333  0.000000     24.000000
  0.500000  0.083333  0.000000     24.000000
 -0.416667  0.083333  0.000000     24.000000
 -0.333333  0.083333  0.000000     24.000000
 -0.250000  0.083333  0.000000     24.000000
 -0.166667  0.083333  0.000000     24.000000
 -0.083333  0.083333  0.000000     12.000000
  0.166667  0.166667  0.000000      6.000000
  0.250000  0.166667  0.000000     24.000000
  0.333333  0.166667  0.000000     24.000000
  0.416667  0.166667  0.000000     24.000000
  0.500000  0.166667  0.000000     24.000000
 -0.416667  0.166667  0.000000     24.000000
 -0.333333  0.166667  0.000000     24.000000
 -0.250000  0.166667  0.000000     24.000000
 -0.166667  0.166667  0.000000     12.000000
  0.250000  0.250000  0.000000      6.000000
  0.333333  0.250000  0.000000     24.000000
  0.416667  0.250000  0.000000     24.000000
  0.500000  0.250000  0.000000     24.000000
 -0.416667  0.250000  0.000000     24.000000
 -0.333333  0.250000  0.000000     24.000000
 -0.250000  0.250000  0.000000     12.000000
  0.333333  0.333333  0.000000      6.000000
  0.416667  0.333333  0.000000     24.000000
  0.500000  0.333333  0.000000     24.000000
 -0.416667  0.333333  0.000000     24.000000
 -0.333333  0.333333  0.000000     12.000000
  0.416667  0.416667  0.000000      6.000000
  0.500000  0.416667  0.000000     24.000000
 -0.416667  0.416667  0.000000     12.000000
  0.500000  0.500000  0.000000      3.000000
  0.250000  0.166667  0.083333     24.000000
  0.333333  0.166667  0.083333     48.000000
  0.416667  0.166667  0.083333     48.000000
  0.500000  0.166667  0.083333     48.000000
 -0.416667  0.166667  0.083333     24.000000
  0.333333  0.250000  0.083333     24.000000
  0.416667  0.250000  0.083333     48.000000
  0.500000  0.250000  0.083333     48.000000
 -0.416667  0.250000  0.083333     48.000000
 -0.333333  0.250000  0.083333     48.000000
 -0.250000  0.250000  0.083333     48.000000
 -0.166667  0.250000  0.083333     24.000000
  0.416667  0.333333  0.083333     24.000000
  0.500000  0.333333  0.083333     48.000000
 -0.416667  0.333333  0.083333     48.000000
 -0.333333  0.333333  0.083333     48.000000
 -0.250000  0.333333  0.083333     24.000000
  0.500000  0.416667  0.083333     24.000000
 -0.416667  0.416667  0.083333     48.000000
 -0.333333  0.416667  0.083333     24.000000
 -0.416667  0.500000  0.083333     12.000000
  0.500000  0.333333  0.166667     24.000000
 -0.416667  0.333333  0.166667     48.000000
 -0.333333  0.333333  0.166667     24.000000
 -0.416667  0.416667  0.166667     24.000000
 -0.333333  0.416667  0.166667     48.000000
 -0.250000  0.416667  0.166667     24.000000
 -0.333333  0.500000  0.166667     12.000000
 -0.250000  0.500000  0.250000      6.000000
 
 Following cartesian coordinates:
            Coordinates               Weight
  0.000000  0.000000  0.000000      1.000000
 -0.083333  0.083333  0.083333      8.000000
 -0.166667  0.166667  0.166667      8.000000
 -0.250000  0.250000  0.250000      8.000000
 -0.333333  0.333333  0.333333      8.000000
 -0.416667  0.416667  0.416667      8.000000
 -0.500000  0.500000  0.500000      4.000000
  0.000000  0.000000  0.166667      6.000000
 -0.083333  0.083333  0.250000     24.000000
 -0.166667  0.166667  0.333333     24.000000
 -0.250000  0.250000  0.416667     24.000000
 -0.333333  0.333333  0.500000     24.000000
 -0.416667  0.416667  0.583333     24.000000
  0.500000 -0.500000 -0.333333     24.000000
  0.416667 -0.416667 -0.250000     24.000000
  0.333333 -0.333333 -0.166667     24.000000
  0.250000 -0.250000 -0.083333     24.000000
  0.166667 -0.166667  0.000000     12.000000
  0.000000  0.000000  0.333333      6.000000
 -0.083333  0.083333  0.416667     24.000000
 -0.166667  0.166667  0.500000     24.000000
 -0.250000  0.250000  0.583333     24.000000
 -0.333333  0.333333  0.666667     24.000000
  0.583333 -0.583333 -0.250000     24.000000
  0.500000 -0.500000 -0.166667     24.000000
  0.416667 -0.416667 -0.083333     24.000000
  0.333333 -0.333333  0.000000     12.000000
  0.000000  0.000000  0.500000      6.000000
 -0.083333  0.083333  0.583333     24.000000
 -0.166667  0.166667  0.666667     24.000000
 -0.250000  0.250000  0.750000     24.000000
  0.666667 -0.666667 -0.166667     24.000000
  0.583333 -0.583333 -0.083333     24.000000
  0.500000 -0.500000  0.000000     12.000000
  0.000000  0.000000  0.666667      6.000000
 -0.083333  0.083333  0.750000     24.000000
 -0.166667  0.166667  0.833333     24.000000
  0.750000 -0.750000 -0.083333     24.000000
  0.666667 -0.666667  0.000000     12.000000
  0.000000  0.000000  0.833333      6.000000
 -0.083333  0.083333  0.916667     24.000000
  0.833333 -0.833333  0.000000     12.000000
  0.000000  0.000000  1.000000      3.000000
  0.000000  0.166667  0.333333     24.000000
 -0.083333  0.250000  0.416667     48.000000
 -0.166667  0.333333  0.500000     48.000000
 -0.250000  0.416667  0.583333     48.000000
  0.666667 -0.500000 -0.333333     24.000000
  0.000000  0.166667  0.500000     24.000000
 -0.083333  0.250000  0.583333     48.000000
 -0.166667  0.333333  0.666667     48.000000
  0.750000 -0.583333 -0.250000     48.000000
  0.666667 -0.500000 -0.166667     48.000000
  0.583333 -0.416667 -0.083333     48.000000
  0.500000 -0.333333  0.000000     24.000000
 -0.000000  0.166667  0.666667     24.000000
 -0.083333  0.250000  0.750000     48.000000
  0.833333 -0.666667 -0.166667     48.000000
  0.750000 -0.583333 -0.083333     48.000000
  0.666667 -0.500000  0.000000     24.000000
  0.000000  0.166667  0.833333     24.000000
  0.916667 -0.750000 -0.083333     48.000000
  0.833333 -0.666667  0.000000     24.000000
  1.000000 -0.833333  0.000000     12.000000
  0.000000  0.333333  0.666667     24.000000
  0.916667 -0.583333 -0.250000     48.000000
  0.833333 -0.500000 -0.166667     24.000000
  1.000000 -0.666667 -0.166667     24.000000
  0.916667 -0.583333 -0.083333     48.000000
  0.833333 -0.500000  0.000000     24.000000
  1.000000 -0.666667  0.000000     12.000000
  1.000000 -0.500000  0.000000      6.000000
 


--------------------------------------------------------------------------------------------------------




 Dimension of arrays:
   k-points           NKPTS =     72   k-points in BZ     NKDIM =     72   number of bands    NBANDS=      8
   number of dos      NEDOS =    301   number of ions     NIONS =      2
   non local maximal  LDIM  =      4   non local SUM 2l+1 LMDIM =      8
   total plane-waves  NPLWV =  21952
   max r-space proj   IRMAX =      1   max aug-charges    IRDMAX=   9972
   dimension x,y,z NGX =    28 NGY =   28 NGZ =   28
   dimension x,y,z NGXF=    56 NGYF=   56 NGZF=   56
   support grid    NGXF=    56 NGYF=   56 NGZF=   56
   ions per type =               2
 NGX,Y,Z   is equivalent  to a cutoff of   9.83,  9.83,  9.83 a.u.
 NGXF,Y,Z  is equivalent  to a cutoff of  19.66, 19.66, 19.66 a.u.


 I would recommend the setting:
   dimension x,y,z NGX =    28 NGY =   28 NGZ =   28
 SYSTEM =  Si
 POSCAR =  Si

 Startparameter for this run:
   NWRITE =      2    write-flag & timer
   PREC   = normal    normal or accurate (medium, high low for compatibility)
   ISTART =      0    job   : 0-new  1-cont  2-samecut
   ICHARG =      2    charge: 1-file 2-atom 10-const
   ISPIN  =      1    spin polarized calculation?
   LNONCOLLINEAR =      F non collinear calculations
   LSORBIT =      F    spin-orbit coupling
   INIWAV =      1    electr: 0-lowe 1-rand  2-diag
   LASPH  =      F    aspherical Exc in radial PAW
   METAGGA=      F    non-selfconsistent MetaGGA calc.

 Electronic Relaxation 1
   ENCUT  =  600.0 eV  44.10 Ry    6.64 a.u.   9.46  9.46  9.46*2*pi/ulx,y,z
   ENINI  =  600.0     initial cutoff
   ENAUG  = 1200.0 eV  augmentation charge cutoff
   NELM   =    500;   NELMIN=  2; NELMDL= -5     # of ELM steps 
   EDIFF  = 0.1E-09   stopping-criterion for ELM
   LREAL  =      F    real-space projection
   NLSPLINE    = F    spline interpolate recip. space projectors
   LCOMPAT=      F    compatible to vasp.4.4
   GGA_COMPAT  = T    GGA compatible to vasp.4.4-vasp.4.6
   LMAXPAW     = -100 max onsite density
   LMAXMIX     =    2 max onsite mixed and CHGCAR
   VOSKOWN=      0    Vosko Wilk Nusair interpolation
   ROPT   =    0.00000
 Ionic relaxation
   EDIFFG = 0.1E-08   stopping-criterion for IOM
   NSW    =      0    number of steps for IOM
   NBLOCK =      1;   KBLOCK =      1    inner block; outer block 
   IBRION =     -1    ionic relax: 0-MD 1-quasi-New 2-CG
   NFREE  =      0    steps in history (QN), initial steepest desc. (CG)
   ISIF   =      2    stress and relaxation
   IWAVPR =     10    prediction:  0-non 1-charg 2-wave 3-comb
   ISYM   =      2    0-nonsym 1-usesym 2-fastsym
   LCORR  =      T    Harris-Foulkes like correction to forces

   POTIM  = 0.5000    time-step for ionic-motion
   TEIN   =    0.0    initial temperature
   TEBEG  =    0.0;   TEEND  =   0.0 temperature during run
   SMASS  =  -3.00    Nose mass-parameter (am)
   estimated Nose-frequenzy (Omega)   =  0.10E-29 period in steps =****** mass=  -0.513E-27a.u.
   SCALEE = 1.0000    scale energy and forces
   NPACO  =    256;   APACO  = 16.0  distance and # of slots for P.C.
   PSTRESS=    0.0 pullay stress

  Mass of Ions in am
   POMASS =  28.09
  Ionic Valenz
   ZVAL   =   4.00
  Atomic Wigner-Seitz radii
   RWIGS  =  -1.00
  virtual crystal weights 
   VCA    =   1.00
   NELECT =       8.0000    total number of electrons
   NUPDOWN=      -1.0000    fix difference up-down

 DOS related values:
   EMIN   =  10.00;   EMAX   =-10.00  energy-range for DOS
   EFERMI =   0.00
   ISMEAR =    -1;   SIGMA  =   0.03  broadening in eV -4-tet -1-fermi 0-gaus

 Electronic relaxation 2 (details)
   IALGO  =     38    algorithm
   LDIAG  =      T    sub-space diagonalisation (order eigenvalues)
   LSUBROT=      F    optimize rotation matrix (better conditioning)
   TURBO    =      0    0=normal 1=particle mesh
   IRESTART =      0    0=no restart 2=restart with 2 vectors
   NREBOOT  =      0    no. of reboots
   NMIN     =      0    reboot dimension
   EREF     =   0.00    reference energy to select bands
   IMIX   =      4    mixing-type and parameters
     AMIX     =   0.40;   BMIX     =  1.00
     AMIX_MAG =   1.60;   BMIX_MAG =  1.00
     AMIN     =   0.10
     WC   =   100.;   INIMIX=   1;  MIXPRE=   1;  MAXMIX= -45

 Intra band minimization:
   WEIMIN = 0.0000     energy-eigenvalue tresh-hold
   EBREAK =  0.31E-11  absolut break condition
   DEPER  =   0.30     relativ break condition  

   TIME   =   0.40     timestep for ELM

  volume/ion in A,a.u.               =      37.55       253.40
  Fermi-wavevector in a.u.,A,eV,Ry     =   0.776058  1.466537  8.194325  0.602266
  Thomas-Fermi vector in A             =   1.878456
 
 Write flags
   LWAVE  =      T    write WAVECAR
   LCHARG =      T    write CHGCAR
   LVTOT  =      F    write LOCPOT, total local potential
   LVHAR  =      F    write LOCPOT, Hartree potential only
   LELF   =      F    write electronic localiz. function (ELF)
   LORBIT =      0    0 simple, 1 ext, 2 COOP (PROOUT)


 Dipole corrections
   LMONO  =      F    monopole corrections only (constant potential shift)
   LDIPOL =      F    correct potential (dipole corrections)
   IDIPOL =      0    1-x, 2-y, 3-z, 4-all directions 
   EPSILON=  1.0000000 bulk dielectric constant

 Exchange correlation treatment:
   GGA     =    PE    GGA type
   LEXCH   =     8    internal setting for exchange type
   VOSKOWN=      0    Vosko Wilk Nusair interpolation
   LHFCALC =     F    Hartree Fock is set to
   LHFONE  =     F    Hartree Fock one center treatment
   AEXX    =    0.0000 exact exchange contribution

 Linear response parameters
   LEPSILON=     F    determine dielectric tensor
   LRPA    =     F    only Hartree local field effects (RPA)
   LNABLA  =     F    use nabla operator in PAW spheres
   LVEL    =     F    velocity operator in full k-point grid
   LINTERFAST=   F  fast interpolation
   KINTER  =     0    interpolate to denser k-point grid
   CSHIFT  =0.1000    complex shift for real part using Kramers Kronig
   OMEGAMAX=  -1.0    maximum frequency
   DEG_THRESHOLD= 0.2000000E-02 threshold for treating states as degnerate
   RTIME   =    0.100 relaxation time in fs

 Orbital magnetization related:
   ORBITALMAG=     F  switch on orbital magnetization
   LCHIMAG   =     F  perturbation theory with respect to B field
   DQ        =  0.001000  dq finite difference perturbation B field



--------------------------------------------------------------------------------------------------------


 Static calculation
 charge density and potential will be updated during run
 non-spin polarized calculation
 Variant of blocked Davidson
 Davidson routine will perform the subspace rotation
 perform sub-space diagonalisation
    after iterative eigenvector-optimisation
 modified Broyden-mixing scheme, WC =      100.0
 initial mixing is a Kerker type mixing with AMIX =  0.4000 and BMIX =      1.0000
 Hartree-type preconditioning will be used
 using additional bands            4
 reciprocal scheme for non local part
 use partial core corrections
 calculate Harris-corrections to forces 
   (improved forces if not selfconsistent)
 use gradient corrections 
 use of overlap-Matrix (Vanderbilt PP)
 Fermi-smearing in eV        SIGMA  =   0.03


--------------------------------------------------------------------------------------------------------


  energy-cutoff  :      600.00
  volume of cell :       75.10
      direct lattice vectors                 reciprocal lattice vectors
     0.000000000  3.348631561  3.348631561    -0.149314725  0.149314725  0.149314725
     3.348631561  0.000000000  3.348631561     0.149314725 -0.149314725  0.149314725
     3.348631561  3.348631561  0.000000000     0.149314725  0.149314725 -0.149314725

  length of vectors
     4.735680169  4.735680169  4.735680169     0.258620690  0.258620690  0.258620690


 
 k-points in units of 2pi/SCALE and weight: Gamma centered Monkhorst-Pack           
   0.00000000  0.00000000  0.00000000       0.001
  -0.08333333  0.08333333  0.08333333       0.005
  -0.16666667  0.16666667  0.16666667       0.005
  -0.25000000  0.25000000  0.25000000       0.005
  -0.33333333  0.33333333  0.33333333       0.005
  -0.41666667  0.41666667  0.41666667       0.005
  -0.50000000  0.50000000  0.50000000       0.002
   0.00000000  0.00000000  0.16666667       0.003
  -0.08333333  0.08333333  0.25000000       0.014
  -0.16666667  0.16666667  0.33333333       0.014
  -0.25000000  0.25000000  0.41666667       0.014
  -0.33333333  0.33333333  0.50000000       0.014
  -0.41666667  0.41666667  0.58333333       0.014
   0.50000000 -0.50000000 -0.33333333       0.014
   0.41666667 -0.41666667 -0.25000000       0.014
   0.33333333 -0.33333333 -0.16666667       0.014
   0.25000000 -0.25000000 -0.08333333       0.014
   0.16666667 -0.16666667  0.00000000       0.007
   0.00000000  0.00000000  0.33333333       0.003
  -0.08333333  0.08333333  0.41666667       0.014
  -0.16666667  0.16666667  0.50000000       0.014
  -0.25000000  0.25000000  0.58333333       0.014
  -0.33333333  0.33333333  0.66666667       0.014
   0.58333333 -0.58333333 -0.25000000       0.014
   0.50000000 -0.50000000 -0.16666667       0.014
   0.41666667 -0.41666667 -0.08333333       0.014
   0.33333333 -0.33333333  0.00000000       0.007
   0.00000000  0.00000000  0.50000000       0.003
  -0.08333333  0.08333333  0.58333333       0.014
  -0.16666667  0.16666667  0.66666667       0.014
  -0.25000000  0.25000000  0.75000000       0.014
   0.66666667 -0.66666667 -0.16666667       0.014
   0.58333333 -0.58333333 -0.08333333       0.014
   0.50000000 -0.50000000  0.00000000       0.007
   0.00000000  0.00000000  0.66666667       0.003
  -0.08333333  0.08333333  0.75000000       0.014
  -0.16666667  0.16666667  0.83333333       0.014
   0.75000000 -0.75000000 -0.08333333       0.014
   0.66666667 -0.66666667  0.00000000       0.007
   0.00000000  0.00000000  0.83333333       0.003
  -0.08333333  0.08333333  0.91666667       0.014
   0.83333333 -0.83333333  0.00000000       0.007
   0.00000000  0.00000000  1.00000000       0.002
   0.00000000  0.16666667  0.33333333       0.014
  -0.08333333  0.25000000  0.41666667       0.028
  -0.16666667  0.33333333  0.50000000       0.028
  -0.25000000  0.41666667  0.58333333       0.028
   0.66666667 -0.50000000 -0.33333333       0.014
   0.00000000  0.16666667  0.50000000       0.014
  -0.08333333  0.25000000  0.58333333       0.028
  -0.16666667  0.33333333  0.66666667       0.028
   0.75000000 -0.58333333 -0.25000000       0.028
   0.66666667 -0.50000000 -0.16666667       0.028
   0.58333333 -0.41666667 -0.08333333       0.028
   0.50000000 -0.33333333  0.00000000       0.014
  -0.00000000  0.16666667  0.66666667       0.014
  -0.08333333  0.25000000  0.75000000       0.028
   0.83333333 -0.66666667 -0.16666667       0.028
   0.75000000 -0.58333333 -0.08333333       0.028
   0.66666667 -0.50000000  0.00000000       0.014
   0.00000000  0.16666667  0.83333333       0.014
   0.91666667 -0.75000000 -0.08333333       0.028
   0.83333333 -0.66666667  0.00000000       0.014
   1.00000000 -0.83333333  0.00000000       0.007
   0.00000000  0.33333333  0.66666667       0.014
   0.91666667 -0.58333333 -0.25000000       0.028
   0.83333333 -0.50000000 -0.16666667       0.014
   1.00000000 -0.66666667 -0.16666667       0.014
   0.91666667 -0.58333333 -0.08333333       0.028
   0.83333333 -0.50000000  0.00000000       0.014
   1.00000000 -0.66666667  0.00000000       0.007
   1.00000000 -0.50000000  0.00000000       0.003
 
 k-points in reciprocal lattice and weights: Gamma centered Monkhorst-Pack           
   0.00000000  0.00000000  0.00000000       0.001
   0.08333333  0.00000000  0.00000000       0.005
   0.16666667  0.00000000  0.00000000       0.005
   0.25000000  0.00000000  0.00000000       0.005
   0.33333333  0.00000000  0.00000000       0.005
   0.41666667  0.00000000  0.00000000       0.005
   0.50000000  0.00000000  0.00000000       0.002
   0.08333333  0.08333333  0.00000000       0.003
   0.16666667  0.08333333  0.00000000       0.014
   0.25000000  0.08333333  0.00000000       0.014
   0.33333333  0.08333333  0.00000000       0.014
   0.41666667  0.08333333  0.00000000       0.014
   0.50000000  0.08333333  0.00000000       0.014
  -0.41666667  0.08333333  0.00000000       0.014
  -0.33333333  0.08333333  0.00000000       0.014
  -0.25000000  0.08333333  0.00000000       0.014
  -0.16666667  0.08333333  0.00000000       0.014
  -0.08333333  0.08333333  0.00000000       0.007
   0.16666667  0.16666667  0.00000000       0.003
   0.25000000  0.16666667  0.00000000       0.014
   0.33333333  0.16666667  0.00000000       0.014
   0.41666667  0.16666667  0.00000000       0.014
   0.50000000  0.16666667  0.00000000       0.014
  -0.41666667  0.16666667  0.00000000       0.014
  -0.33333333  0.16666667  0.00000000       0.014
  -0.25000000  0.16666667  0.00000000       0.014
  -0.16666667  0.16666667  0.00000000       0.007
   0.25000000  0.25000000  0.00000000       0.003
   0.33333333  0.25000000  0.00000000       0.014
   0.41666667  0.25000000  0.00000000       0.014
   0.50000000  0.25000000  0.00000000       0.014
  -0.41666667  0.25000000  0.00000000       0.014
  -0.33333333  0.25000000  0.00000000       0.014
  -0.25000000  0.25000000  0.00000000       0.007
   0.33333333  0.33333333  0.00000000       0.003
   0.41666667  0.33333333  0.00000000       0.014
   0.50000000  0.33333333  0.00000000       0.014
  -0.41666667  0.33333333  0.00000000       0.014
  -0.33333333  0.33333333  0.00000000       0.007
   0.41666667  0.41666667  0.00000000       0.003
   0.50000000  0.41666667  0.00000000       0.014
  -0.41666667  0.41666667  0.00000000       0.007
   0.50000000  0.50000000  0.00000000       0.002
   0.25000000  0.16666667  0.08333333       0.014
   0.33333333  0.16666667  0.08333333       0.028
   0.41666667  0.16666667  0.08333333       0.028
   0.50000000  0.16666667  0.08333333       0.028
  -0.41666667  0.16666667  0.08333333       0.014
   0.33333333  0.25000000  0.08333333       0.014
   0.41666667  0.25000000  0.08333333       0.028
   0.50000000  0.25000000  0.08333333       0.028
  -0.41666667  0.25000000  0.08333333       0.028
  -0.33333333  0.25000000  0.08333333       0.028
  -0.25000000  0.25000000  0.08333333       0.028
  -0.16666667  0.25000000  0.08333333       0.014
   0.41666667  0.33333333  0.08333333       0.014
   0.50000000  0.33333333  0.08333333       0.028
  -0.41666667  0.33333333  0.08333333       0.028
  -0.33333333  0.33333333  0.08333333       0.028
  -0.25000000  0.33333333  0.08333333       0.014
   0.50000000  0.41666667  0.08333333       0.014
  -0.41666667  0.41666667  0.08333333       0.028
  -0.33333333  0.41666667  0.08333333       0.014
  -0.41666667  0.50000000  0.08333333       0.007
   0.50000000  0.33333333  0.16666667       0.014
  -0.41666667  0.33333333  0.16666667       0.028
  -0.33333333  0.33333333  0.16666667       0.014
  -0.41666667  0.41666667  0.16666667       0.014
  -0.33333333  0.41666667  0.16666667       0.028
  -0.25000000  0.41666667  0.16666667       0.014
  -0.33333333  0.50000000  0.16666667       0.007
  -0.25000000  0.50000000  0.25000000       0.003
 
 position of ions in fractional coordinates (direct lattice) 
   0.00000000  0.00000000  0.00000000
   0.25000000  0.25000000  0.25000000
 
 position of ions in cartesian coordinates  (Angst):
   0.00000000  0.00000000  0.00000000
   1.67431578  1.67431578  1.67431578
 


--------------------------------------------------------------------------------------------------------


 k-point  1 :   0.0000 0.0000 0.0000  plane waves:    2445
 k-point  2 :   0.0833 0.0000 0.0000  plane waves:    2520
 k-point  3 :   0.1667 0.0000 0.0000  plane waves:    2535
 k-point  4 :   0.2500 0.0000 0.0000  plane waves:    2523
 k-point  5 :   0.3333 0.0000 0.0000  plane waves:    2497
 k-point  6 :   0.4167 0.0000 0.0000  plane waves:    2497
 k-point  7 :   0.5000 0.0000 0.0000  plane waves:    2512
 k-point  8 :   0.0833 0.0833 0.0000  plane waves:    2533
 k-point  9 :   0.1667 0.0833 0.0000  plane waves:    2534
 k-point 10 :   0.2500 0.0833 0.0000  plane waves:    2524
 k-point 11 :   0.3333 0.0833 0.0000  plane waves:    2509
 k-point 12 :   0.4167 0.0833 0.0000  plane waves:    2505
 k-point 13 :   0.5000 0.0833 0.0000  plane waves:    2502
 k-point 14 :  -0.4167 0.0833 0.0000  plane waves:    2498
 k-point 15 :  -0.3333 0.0833 0.0000  plane waves:    2504
 k-point 16 :  -0.2500 0.0833 0.0000  plane waves:    2514
 k-point 17 :  -0.1667 0.0833 0.0000  plane waves:    2524
 k-point 18 :  -0.0833 0.0833 0.0000  plane waves:    2535
 k-point 19 :   0.1667 0.1667 0.0000  plane waves:    2541
 k-point 20 :   0.2500 0.1667 0.0000  plane waves:    2519
 k-point 21 :   0.3333 0.1667 0.0000  plane waves:    2514
 k-point 22 :   0.4167 0.1667 0.0000  plane waves:    2498
 k-point 23 :   0.5000 0.1667 0.0000  plane waves:    2496
 k-point 24 :  -0.4167 0.1667 0.0000  plane waves:    2503
 k-point 25 :  -0.3333 0.1667 0.0000  plane waves:    2497
 k-point 26 :  -0.2500 0.1667 0.0000  plane waves:    2511
 k-point 27 :  -0.1667 0.1667 0.0000  plane waves:    2519
 k-point 28 :   0.2500 0.2500 0.0000  plane waves:    2525
 k-point 29 :   0.3333 0.2500 0.0000  plane waves:    2502
 k-point 30 :   0.4167 0.2500 0.0000  plane waves:    2501
 k-point 31 :   0.5000 0.2500 0.0000  plane waves:    2504
 k-point 32 :  -0.4167 0.2500 0.0000  plane waves:    2523
 k-point 33 :  -0.3333 0.2500 0.0000  plane waves:    2509
 k-point 34 :  -0.2500 0.2500 0.0000  plane waves:    2517
 k-point 35 :   0.3333 0.3333 0.0000  plane waves:    2494
 k-point 36 :   0.4167 0.3333 0.0000  plane waves:    2503
 k-point 37 :   0.5000 0.3333 0.0000  plane waves:    2500
 k-point 38 :  -0.4167 0.3333 0.0000  plane waves:    2507
 k-point 39 :  -0.3333 0.3333 0.0000  plane waves:    2512
 k-point 40 :   0.4167 0.4167 0.0000  plane waves:    2498
 k-point 41 :   0.5000 0.4167 0.0000  plane waves:    2494
 k-point 42 :  -0.4167 0.4167 0.0000  plane waves:    2506
 k-point 43 :   0.5000 0.5000 0.0000  plane waves:    2498
 k-point 44 :   0.2500 0.1667 0.0833  plane waves:    2528
 k-point 45 :   0.3333 0.1667 0.0833  plane waves:    2519
 k-point 46 :   0.4167 0.1667 0.0833  plane waves:    2506
 k-point 47 :   0.5000 0.1667 0.0833  plane waves:    2503
 k-point 48 :  -0.4167 0.1667 0.0833  plane waves:    2500
 k-point 49 :   0.3333 0.2500 0.0833  plane waves:    2507
 k-point 50 :   0.4167 0.2500 0.0833  plane waves:    2513
 k-point 51 :   0.5000 0.2500 0.0833  plane waves:    2500
 k-point 52 :  -0.4167 0.2500 0.0833  plane waves:    2500
 k-point 53 :  -0.3333 0.2500 0.0833  plane waves:    2506
 k-point 54 :  -0.2500 0.2500 0.0833  plane waves:    2501
 k-point 55 :  -0.1667 0.2500 0.0833  plane waves:    2505
 k-point 56 :   0.4167 0.3333 0.0833  plane waves:    2503
 k-point 57 :   0.5000 0.3333 0.0833  plane waves:    2500
 k-point 58 :  -0.4167 0.3333 0.0833  plane waves:    2504
 k-point 59 :  -0.3333 0.3333 0.0833  plane waves:    2512
 k-point 60 :  -0.2500 0.3333 0.0833  plane waves:    2500
 k-point 61 :   0.5000 0.4167 0.0833  plane waves:    2498
 k-point 62 :  -0.4167 0.4167 0.0833  plane waves:    2503
 k-point 63 :  -0.3333 0.4167 0.0833  plane waves:    2508
 k-point 64 :  -0.4167 0.5000 0.0833  plane waves:    2496
 k-point 65 :   0.5000 0.3333 0.1667  plane waves:    2504
 k-point 66 :  -0.4167 0.3333 0.1667  plane waves:    2499
 k-point 67 :  -0.3333 0.3333 0.1667  plane waves:    2494
 k-point 68 :  -0.4167 0.4167 0.1667  plane waves:    2502
 k-point 69 :  -0.3333 0.4167 0.1667  plane waves:    2508
 k-point 70 :  -0.2500 0.4167 0.1667  plane waves:    2503
 k-point 71 :  -0.3333 0.5000 0.1667  plane waves:    2520
 k-point 72 :  -0.2500 0.5000 0.2500  plane waves:    2488

 maximum and minimum number of plane-waves per node :      2541     2445

 maximum number of plane-waves:      2541
 maximum index in each direction: 
   IXMAX=    9   IYMAX=    9   IZMAX=    9
   IXMIN=   -9   IYMIN=   -9   IZMIN=   -9

 WARNING: aliasing errors must be expected set NGX to  38 to avoid them
 WARNING: aliasing errors must be expected set NGY to  38 to avoid them
 WARNING: aliasing errors must be expected set NGZ to  38 to avoid them
 aliasing errors are usually negligible using standard VASP settings
 and one can safely disregard these warnings

 serial   3D FFT for wavefunctions
 parallel 3D FFT for charge:
    minimum data exchange during FFTs selected (reduces bandwidth)


 total amount of memory used by VASP on root node    52375. kBytes
========================================================================

   base      :      30000. kBytes
   nonl-proj :      11804. kBytes
   fftplans  :       1619. kBytes
   grid      :       3048. kBytes
   one-center:          6. kBytes
   wavefun   :       5898. kBytes
 
     INWAV:  cpu time    0.00: real time    0.00
 Broyden mixing: mesh for mixing (old mesh)
   NGX = 19   NGY = 19   NGZ = 19
  (NGX  = 56   NGY  = 56   NGZ  = 56)
  gives a total of   6859 points

 initial charge density was supplied:
 charge density of overlapping atoms calculated
 number of electron       8.0000000 magnetization 
 keeping initial charge density in first step


--------------------------------------------------------------------------------------------------------


 Maximum index for augmentation-charges         2397 (set IRDMAX)


--------------------------------------------------------------------------------------------------------


 First call to EWALD:  gamma=   0.420
 Maximum number of real-space cells 3x 3x 3
 Maximum number of reciprocal cells 3x 3x 3

 FEWALD executed in parallel
    FEWALD:  cpu time    0.00: real time    0.00


----------------------------------------- Iteration    1(   1)  ---------------------------------------


    POTLOK:  cpu time    0.04: real time    0.04
    SETDIJ:  cpu time    0.00: real time    0.00
     EDDAV:  cpu time    0.50: real time    0.51
       DOS:  cpu time    0.00: real time    0.00
    --------------------------------------------
      LOOP:  cpu time    0.54: real time    0.56

 eigenvalue-minimisations  :  1152
 total energy-change (2. order) : 0.8928010E+01  (-0.3040797E+03)
 number of electron       8.0000000 magnetization 
 augmentation part        8.0000000 magnetization 

 Free energy of the ion-electron system (eV)
  ---------------------------------------------------
  alpha Z        PSCENC =         1.79300593
  Ewald energy   TEWEN  =      -185.31449603
  -Hartree energ DENC   =       -22.35044086
  -exchange      EXHF   =         0.00000000
  -V(xc)+E(xc)   XCENC  =       -20.58616559
  PAW double counting   =        65.95520812      -30.76852678
  entropy T*S    EENTRO =        -0.00222780
  eigenvalues    EBANDS =        -5.93146571
  atomic energy  EATOM  =       206.13311910
  ---------------------------------------------------
  free energy    TOTEN  =         8.92801038 eV

  energy without entropy =        8.93023817  energy(sigma->0) =        8.92912427


--------------------------------------------------------------------------------------------------------




----------------------------------------- Iteration    1(   2)  ---------------------------------------


     EDDAV:  cpu time    0.70: real time    0.71
       DOS:  cpu time    0.00: real time    0.00
    --------------------------------------------
      LOOP:  cpu time    0.70: real time    0.71

 eigenvalue-minimisations  :  1808
 total energy-change (2. order) :-0.1689080E+02  (-0.1637711E+02)
 number of electron       8.0000000 magnetization 
 augmentation part        8.0000000 magnetization 

 Free energy of the ion-electron system (eV)
  ---------------------------------------------------
  alpha Z        PSCENC =         1.79300593
  Ewald energy   TEWEN  =      -185.31449603
  -Hartree energ DENC   =       -22.35044086
  -exchange      EXHF   =         0.00000000
  -V(xc)+E(xc)   XCENC  =       -20.58616559
  PAW double counting   =        65.95520812      -30.76852678
  entropy T*S    EENTRO =        -0.00070247
  eigenvalues    EBANDS =       -22.82378744
  atomic energy  EATOM  =       206.13311910
  ---------------------------------------------------
  free energy    TOTEN  =        -7.96278602 eV

  energy without entropy =       -7.96208355  energy(sigma->0) =       -7.96243479


--------------------------------------------------------------------------------------------------------




----------------------------------------- Iteration    1(   3)  ---------------------------------------


     EDDAV:  cpu time    0.60: real time    0.61
       DOS:  cpu time    0.00: real time    0.00
    --------------------------------------------
      LOOP:  cpu time    0.60: real time    0.61

 eigenvalue-minimisations  :  1496
 total energy-change (2. order) :-0.4075784E+00  (-0.4073128E+00)
 number of electron       8.0000000 magnetization 
 augmentation part        8.0000000 magnetization 

 Free energy of the ion-electron system (eV)
  ---------------------------------------------------
  alpha Z        PSCENC =         1.79300593
  Ewald energy   TEWEN  =      -185.31449603
  -Hartree energ DENC   =       -22.35044086
  -exchange      EXHF   =         0.00000000
  -V(xc)+E(xc)   XCENC  =       -20.58616559
  PAW double counting   =        65.95520812      -30.76852678
  entropy T*S    EENTRO =        -0.00079198
  eigenvalues    EBANDS =       -23.23127628
  atomic energy  EATOM  =       206.13311910
  ---------------------------------------------------
  free energy    TOTEN  =        -8.37036438 eV

  energy without entropy =       -8.36957239  energy(sigma->0) =       -8.36996839


--------------------------------------------------------------------------------------------------------




----------------------------------------- Iteration    1(   4)  ---------------------------------------


     EDDAV:  cpu time    0.63: real time    0.65
       DOS:  cpu time    0.00: real time    0.00
    --------------------------------------------
      LOOP:  cpu time    0.64: real time    0.66

 eigenvalue-minimisations  :  1640
 total energy-change (2. order) :-0.2638583E-02  (-0.2638469E-02)
 number of electron       8.0000000 magnetization 
 augmentation part        8.0000000 magnetization 

 Free energy of the ion-electron system (eV)
  ---------------------------------------------------
  alpha Z        PSCENC =         1.79300593
  Ewald energy   TEWEN  =      -185.31449603
  -Hartree energ DENC   =       -22.35044086
  -exchange      EXHF   =         0.00000000
  -V(xc)+E(xc)   XCENC  =       -20.58616559
  PAW double counting   =        65.95520812      -30.76852678
  entropy T*S    EENTRO =        -0.00079331
  eigenvalues    EBANDS =       -23.23391353
  atomic energy  EATOM  =       206.13311910
  ---------------------------------------------------
  free energy    TOTEN  =        -8.37300296 eV

  energy without entropy =       -8.37220965  energy(sigma->0) =       -8.37260631


--------------------------------------------------------------------------------------------------------




----------------------------------------- Iteration    1(   5)  ---------------------------------------


     EDDAV:  cpu time    0.62: real time    0.63
       DOS:  cpu time    0.00: real time    0.00
    CHARGE:  cpu time    0.03: real time    0.03
    MIXING:  cpu time    0.00: real time    0.00
    --------------------------------------------
      LOOP:  cpu time    0.64: real time    0.67

 eigenvalue-minimisations  :  1576
 total energy-change (2. order) :-0.9074353E-05  (-0.9074358E-05)
 number of electron       7.9999998 magnetization 
 augmentation part       -0.4900482 magnetization 

 Broyden mixing:
  rms(total) = 0.16716E+00    rms(broyden)= 0.16716E+00
  rms(prec ) = 0.41708E+00
  weight for this iteration     100.00

 Free energy of the ion-electron system (eV)
  ---------------------------------------------------
  alpha Z        PSCENC =         1.79300593
  Ewald energy   TEWEN  =      -185.31449603
  -Hartree energ DENC   =       -22.35044086
  -exchange      EXHF   =         0.00000000
  -V(xc)+E(xc)   XCENC  =       -20.58616559
  PAW double counting   =        65.95520812      -30.76852678
  entropy T*S    EENTRO =        -0.00079332
  eigenvalues    EBANDS =       -23.23392260
  atomic energy  EATOM  =       206.13311910
  ---------------------------------------------------
  free energy    TOTEN  =        -8.37301204 eV

  energy without entropy =       -8.37221872  energy(sigma->0) =       -8.37261538


--------------------------------------------------------------------------------------------------------




----------------------------------------- Iteration    1(   6)  ---------------------------------------


    POTLOK:  cpu time    0.02: real time    0.03
    SETDIJ:  cpu time    0.00: real time    0.00
     EDDAV:  cpu time    0.55: real time    0.56
       DOS:  cpu time    0.00: real time    0.00
    CHARGE:  cpu time    0.03: real time    0.03
    MIXING:  cpu time    0.00: real time    0.00
    --------------------------------------------
      LOOP:  cpu time    0.61: real time    0.63

 eigenvalue-minimisations  :  1352
 total energy-change (2. order) : 0.4978303E-03  (-0.2209643E-03)
 number of electron       7.9999998 magnetization 
 augmentation part       -0.4915108 magnetization 

 Broyden mixing:
  rms(total) = 0.10589E+00    rms(broyden)= 0.10589E+00
  rms(prec ) = 0.26762E+00
  weight for this iteration     100.00

 eigenvalues of (default mixing * dielectric matrix)
  average eigenvalue GAMMA=   2.7135
  2.7135

 Free energy of the ion-electron system (eV)
  ---------------------------------------------------
  alpha Z        PSCENC =         1.79300593
  Ewald energy   TEWEN  =      -185.31449603
  -Hartree energ DENC   =       -22.67745592
  -exchange      EXHF   =         0.00000000
  -V(xc)+E(xc)   XCENC  =       -20.53706919
  PAW double counting   =        65.34482151      -30.13239705
  entropy T*S    EENTRO =        -0.00079425
  eigenvalues    EBANDS =       -22.98124831
  atomic energy  EATOM  =       206.13311910
  ---------------------------------------------------
  free energy    TOTEN  =        -8.37251421 eV

  energy without entropy =       -8.37171995  energy(sigma->0) =       -8.37211708


--------------------------------------------------------------------------------------------------------




----------------------------------------- Iteration    1(   7)  ---------------------------------------


    POTLOK:  cpu time    0.02: real time    0.03
    SETDIJ:  cpu time    0.00: real time    0.00
     EDDAV:  cpu time    0.48: real time    0.48
       DOS:  cpu time    0.00: real time    0.00
    CHARGE:  cpu time    0.03: real time    0.03
    MIXING:  cpu time    0.00: real time    0.00
    --------------------------------------------
      LOOP:  cpu time    0.53: real time    0.55

 eigenvalue-minimisations  :  1152
 total energy-change (2. order) : 0.3572398E-02  (-0.9871864E-03)
 number of electron       7.9999998 magnetization 
 augmentation part       -0.4945331 magnetization 

 Broyden mixing:
  rms(total) = 0.72460E-02    rms(broyden)= 0.72460E-02
  rms(prec ) = 0.21362E-01
  weight for this iteration     100.00

 eigenvalues of (default mixing * dielectric matrix)
  average eigenvalue GAMMA=   2.5973
  2.5973  2.5973

 Free energy of the ion-electron system (eV)
  ---------------------------------------------------
  alpha Z        PSCENC =         1.79300593
  Ewald energy   TEWEN  =      -185.31449603
  -Hartree energ DENC   =       -23.51118700
  -exchange      EXHF   =         0.00000000
  -V(xc)+E(xc)   XCENC  =       -20.41264006
  PAW double counting   =        64.27565048      -29.02111499
  entropy T*S    EENTRO =        -0.00079788
  eigenvalues    EBANDS =       -22.31048137
  atomic energy  EATOM  =       206.13311910
  ---------------------------------------------------
  free energy    TOTEN  =        -8.36894181 eV

  energy without entropy =       -8.36814393  energy(sigma->0) =       -8.36854287


--------------------------------------------------------------------------------------------------------




----------------------------------------- Iteration    1(   8)  ---------------------------------------


    POTLOK:  cpu time    0.02: real time    0.03
    SETDIJ:  cpu time    0.00: real time    0.00
     EDDAV:  cpu time    0.53: real time    0.54
       DOS:  cpu time    0.00: real time    0.00
    CHARGE:  cpu time    0.03: real time    0.03
    MIXING:  cpu time    0.00: real time    0.00
    --------------------------------------------
      LOOP:  cpu time    0.59: real time    0.61

 eigenvalue-minimisations  :  1320
 total energy-change (2. order) :-0.1003097E-02  (-0.1666811E-03)
 number of electron       7.9999998 magnetization 
 augmentation part       -0.4936098 magnetization 

 Broyden mixing:
  rms(total) = 0.42028E-02    rms(broyden)= 0.42028E-02
  rms(prec ) = 0.11003E-01
  weight for this iteration     100.00

 eigenvalues of (default mixing * dielectric matrix)
  average eigenvalue GAMMA=   2.2164
  0.9840  3.0498  2.6154

 Free energy of the ion-electron system (eV)
  ---------------------------------------------------
  alpha Z        PSCENC =         1.79300593
  Ewald energy   TEWEN  =      -185.31449603
  -Hartree energ DENC   =       -23.64024862
  -exchange      EXHF   =         0.00000000
  -V(xc)+E(xc)   XCENC  =       -20.40624388
  PAW double counting   =        64.35805871      -29.11300836
  entropy T*S    EENTRO =        -0.00079733
  eigenvalues    EBANDS =       -22.17933442
  atomic energy  EATOM  =       206.13311910
  ---------------------------------------------------
  free energy    TOTEN  =        -8.36994490 eV

  energy without entropy =       -8.36914758  energy(sigma->0) =       -8.36954624


--------------------------------------------------------------------------------------------------------




----------------------------------------- Iteration    1(   9)  ---------------------------------------


    POTLOK:  cpu time    0.02: real time    0.03
    SETDIJ:  cpu time    0.00: real time    0.00
     EDDAV:  cpu time    0.68: real time    0.70
       DOS:  cpu time    0.00: real time    0.00
    CHARGE:  cpu time    0.03: real time    0.03
    MIXING:  cpu time    0.00: real time    0.00
    --------------------------------------------
      LOOP:  cpu time    0.74: real time    0.76

 eigenvalue-minimisations  :  1800
 total energy-change (2. order) :-0.7048676E-04  (-0.9109683E-05)
 number of electron       7.9999998 magnetization 
 augmentation part       -0.4937404 magnetization 

 Broyden mixing:
  rms(total) = 0.93532E-03    rms(broyden)= 0.93532E-03
  rms(prec ) = 0.22212E-02
  weight for this iteration     100.00

 eigenvalues of (default mixing * dielectric matrix)
  average eigenvalue GAMMA=   2.3699
  0.9992  3.4773  2.7825  2.2204

 Free energy of the ion-electron system (eV)
  ---------------------------------------------------
  alpha Z        PSCENC =         1.79300593
  Ewald energy   TEWEN  =      -185.31449603
  -Hartree energ DENC   =       -23.68835872
  -exchange      EXHF   =         0.00000000
  -V(xc)+E(xc)   XCENC  =       -20.39954725
  PAW double counting   =        64.28497980      -29.03732207
  entropy T*S    EENTRO =        -0.00079734
  eigenvalues    EBANDS =       -22.14059880
  atomic energy  EATOM  =       206.13311910
  ---------------------------------------------------
  free energy    TOTEN  =        -8.37001539 eV

  energy without entropy =       -8.36921805  energy(sigma->0) =       -8.36961672


--------------------------------------------------------------------------------------------------------




----------------------------------------- Iteration    1(  10)  ---------------------------------------


    POTLOK:  cpu time    0.02: real time    0.03
    SETDIJ:  cpu time    0.00: real time    0.00
     EDDAV:  cpu time    0.49: real time    0.50
       DOS:  cpu time    0.00: real time    0.00
    CHARGE:  cpu time    0.03: real time    0.03
    MIXING:  cpu time    0.00: real time    0.00
    --------------------------------------------
      LOOP:  cpu time    0.54: real time    0.56

 eigenvalue-minimisations  :  1200
 total energy-change (2. order) :-0.2835477E-04  (-0.5902724E-05)
 number of electron       7.9999998 magnetization 
 augmentation part       -0.4937358 magnetization 

 Broyden mixing:
  rms(total) = 0.26747E-03    rms(broyden)= 0.26747E-03
  rms(prec ) = 0.55786E-03
  weight for this iteration     100.00

 eigenvalues of (default mixing * dielectric matrix)
  average eigenvalue GAMMA=   2.1638
  3.5255  2.5295  2.5295  1.0291  1.2058

 Free energy of the ion-electron system (eV)
  ---------------------------------------------------
  alpha Z        PSCENC =         1.79300593
  Ewald energy   TEWEN  =      -185.31449603
  -Hartree energ DENC   =       -23.69241844
  -exchange      EXHF   =         0.00000000
  -V(xc)+E(xc)   XCENC  =       -20.39909113
  PAW double counting   =        64.24355218      -28.99420622
  entropy T*S    EENTRO =        -0.00079724
  eigenvalues    EBANDS =       -22.13871190
  atomic energy  EATOM  =       206.13311910
  ---------------------------------------------------
  free energy    TOTEN  =        -8.37004375 eV

  energy without entropy =       -8.36924651  energy(sigma->0) =       -8.36964513


--------------------------------------------------------------------------------------------------------




----------------------------------------- Iteration    1(  11)  ---------------------------------------


    POTLOK:  cpu time    0.02: real time    0.03
    SETDIJ:  cpu time    0.00: real time    0.00
     EDDAV:  cpu time    0.68: real time    0.69
       DOS:  cpu time    0.00: real time    0.00
    CHARGE:  cpu time    0.03: real time    0.03
    MIXING:  cpu time    0.00: real time    0.00
    --------------------------------------------
      LOOP:  cpu time    0.73: real time    0.76

 eigenvalue-minimisations  :  1776
 total energy-change (2. order) : 0.1268895E-06  (-0.6877743E-07)
 number of electron       7.9999998 magnetization 
 augmentation part       -0.4937641 magnetization 

 Broyden mixing:
  rms(total) = 0.98212E-04    rms(broyden)= 0.98212E-04
  rms(prec ) = 0.23521E-03
  weight for this iteration     100.00

 eigenvalues of (default mixing * dielectric matrix)
  average eigenvalue GAMMA=   2.2402
  3.6665  2.8903  2.4593  2.4593  0.9830  0.9830

 Free energy of the ion-electron system (eV)
  ---------------------------------------------------
  alpha Z        PSCENC =         1.79300593
  Ewald energy   TEWEN  =      -185.31449603
  -Hartree energ DENC   =       -23.69220925
  -exchange      EXHF   =         0.00000000
  -V(xc)+E(xc)   XCENC  =       -20.39885330
  PAW double counting   =        64.24223345      -28.99265769
  entropy T*S    EENTRO =        -0.00079726
  eigenvalues    EBANDS =       -22.13938857
  atomic energy  EATOM  =       206.13311910
  ---------------------------------------------------
  free energy    TOTEN  =        -8.37004362 eV

  energy without entropy =       -8.36924636  energy(sigma->0) =       -8.36964499


--------------------------------------------------------------------------------------------------------




----------------------------------------- Iteration    1(  12)  ---------------------------------------


    POTLOK:  cpu time    0.02: real time    0.03
    SETDIJ:  cpu time    0.00: real time    0.00
     EDDAV:  cpu time    0.48: real time    0.49
       DOS:  cpu time    0.00: real time    0.00
    CHARGE:  cpu time    0.03: real time    0.03
    MIXING:  cpu time    0.00: real time    0.00
    --------------------------------------------
      LOOP:  cpu time    0.54: real time    0.56

 eigenvalue-minimisations  :  1168
 total energy-change (2. order) :-0.4442678E-06  (-0.3457633E-07)
 number of electron       7.9999998 magnetization 
 augmentation part       -0.4937541 magnetization 

 Broyden mixing:
  rms(total) = 0.13877E-04    rms(broyden)= 0.13877E-04
  rms(prec ) = 0.33258E-04
  weight for this iteration     100.00

 eigenvalues of (default mixing * dielectric matrix)
  average eigenvalue GAMMA=   2.0809
  3.7029  2.9120  2.5503  2.2799  1.1620  1.0173  0.9416

 Free energy of the ion-electron system (eV)
  ---------------------------------------------------
  alpha Z        PSCENC =         1.79300593
  Ewald energy   TEWEN  =      -185.31449603
  -Hartree energ DENC   =       -23.69300949
  -exchange      EXHF   =         0.00000000
  -V(xc)+E(xc)   XCENC  =       -20.39875759
  PAW double counting   =        64.24726838      -28.99786487
  entropy T*S    EENTRO =        -0.00079725
  eigenvalues    EBANDS =       -22.13851223
  atomic energy  EATOM  =       206.13311910
  ---------------------------------------------------
  free energy    TOTEN  =        -8.37004406 eV

  energy without entropy =       -8.36924681  energy(sigma->0) =       -8.36964544


--------------------------------------------------------------------------------------------------------




----------------------------------------- Iteration    1(  13)  ---------------------------------------


    POTLOK:  cpu time    0.02: real time    0.03
    SETDIJ:  cpu time    0.00: real time    0.00
     EDDAV:  cpu time    0.66: real time    0.68
       DOS:  cpu time    0.00: real time    0.00
    CHARGE:  cpu time    0.03: real time    0.03
    MIXING:  cpu time    0.00: real time    0.00
    --------------------------------------------
      LOOP:  cpu time    0.72: real time    0.74

 eigenvalue-minimisations  :  1744
 total energy-change (2. order) : 0.5221008E-07  (-0.2932090E-09)
 number of electron       7.9999998 magnetization 
 augmentation part       -0.4937552 magnetization 

 Broyden mixing:
  rms(total) = 0.29384E-05    rms(broyden)= 0.29383E-05
  rms(prec ) = 0.56648E-05
  weight for this iteration     100.00

 eigenvalues of (default mixing * dielectric matrix)
  average eigenvalue GAMMA=   2.1529
  3.7067  2.9375  2.8664  2.3536  2.3536  1.0492  0.9553  1.0009

 Free energy of the ion-electron system (eV)
  ---------------------------------------------------
  alpha Z        PSCENC =         1.79300593
  Ewald energy   TEWEN  =      -185.31449603
  -Hartree energ DENC   =       -23.69286861
  -exchange      EXHF   =         0.00000000
  -V(xc)+E(xc)   XCENC  =       -20.39876646
  PAW double counting   =        64.24646625      -28.99702883
  entropy T*S    EENTRO =        -0.00079725
  eigenvalues    EBANDS =       -22.13867812
  atomic energy  EATOM  =       206.13311910
  ---------------------------------------------------
  free energy    TOTEN  =        -8.37004401 eV

  energy without entropy =       -8.36924676  energy(sigma->0) =       -8.36964539


--------------------------------------------------------------------------------------------------------




----------------------------------------- Iteration    1(  14)  ---------------------------------------


    POTLOK:  cpu time    0.02: real time    0.03
    SETDIJ:  cpu time    0.00: real time    0.00
     EDDAV:  cpu time    0.48: real time    0.49
       DOS:  cpu time    0.00: real time    0.00
    CHARGE:  cpu time    0.03: real time    0.03
    MIXING:  cpu time    0.00: real time    0.00
    --------------------------------------------
      LOOP:  cpu time    0.54: real time    0.56

 eigenvalue-minimisations  :  1168
 total energy-change (2. order) : 0.9560580E-08  (-0.4067546E-10)
 number of electron       7.9999998 magnetization 
 augmentation part       -0.4937554 magnetization 

 Broyden mixing:
  rms(total) = 0.67994E-06    rms(broyden)= 0.67991E-06
  rms(prec ) = 0.15003E-05
  weight for this iteration     100.00

 eigenvalues of (default mixing * dielectric matrix)
  average eigenvalue GAMMA=   2.0084
  3.7114  2.9649  2.7589  2.5240  2.2634  1.0557  0.9990  0.9578  0.8407

 Free energy of the ion-electron system (eV)
  ---------------------------------------------------
  alpha Z        PSCENC =         1.79300593
  Ewald energy   TEWEN  =      -185.31449603
  -Hartree energ DENC   =       -23.69287836
  -exchange      EXHF   =         0.00000000
  -V(xc)+E(xc)   XCENC  =       -20.39876711
  PAW double counting   =        64.24617929      -28.99673651
  entropy T*S    EENTRO =        -0.00079725
  eigenvalues    EBANDS =       -22.13867306
  atomic energy  EATOM  =       206.13311910
  ---------------------------------------------------
  free energy    TOTEN  =        -8.37004400 eV

  energy without entropy =       -8.36924675  energy(sigma->0) =       -8.36964538


--------------------------------------------------------------------------------------------------------




----------------------------------------- Iteration    1(  15)  ---------------------------------------


    POTLOK:  cpu time    0.02: real time    0.03
    SETDIJ:  cpu time    0.00: real time    0.00
     EDDAV:  cpu time    0.39: real time    0.39
       DOS:  cpu time    0.00: real time    0.00
    CHARGE:  cpu time    0.03: real time    0.03
    MIXING:  cpu time    0.00: real time    0.00
    --------------------------------------------
      LOOP:  cpu time    0.44: real time    0.46

 eigenvalue-minimisations  :   832
 total energy-change (2. order) :-0.8495249E-09  (-0.1113456E-11)
 number of electron       7.9999998 magnetization 
 augmentation part       -0.4937553 magnetization 

 Broyden mixing:
  rms(total) = 0.11868E-06    rms(broyden)= 0.11853E-06
  rms(prec ) = 0.16925E-06
  weight for this iteration     100.00

 eigenvalues of (default mixing * dielectric matrix)
  average eigenvalue GAMMA=   2.1084
  3.7171  2.9461  2.9461  2.7100  2.5171  2.2591  1.0522  0.9858  0.9858  0.9647

 Free energy of the ion-electron system (eV)
  ---------------------------------------------------
  alpha Z        PSCENC =         1.79300593
  Ewald energy   TEWEN  =      -185.31449603
  -Hartree energ DENC   =       -23.69288241
  -exchange      EXHF   =         0.00000000
  -V(xc)+E(xc)   XCENC  =       -20.39876761
  PAW double counting   =        64.24616780      -28.99672560
  entropy T*S    EENTRO =        -0.00079725
  eigenvalues    EBANDS =       -22.13866793
  atomic energy  EATOM  =       206.13311910
  ---------------------------------------------------
  free energy    TOTEN  =        -8.37004400 eV

  energy without entropy =       -8.36924675  energy(sigma->0) =       -8.36964538


--------------------------------------------------------------------------------------------------------




----------------------------------------- Iteration    1(  16)  ---------------------------------------


    POTLOK:  cpu time    0.02: real time    0.03
    SETDIJ:  cpu time    0.00: real time    0.00
     EDDAV:  cpu time    0.31: real time    0.31
       DOS:  cpu time    0.00: real time    0.00
    CHARGE:  cpu time    0.03: real time    0.03
    MIXING:  cpu time    0.00: real time    0.00
    --------------------------------------------
      LOOP:  cpu time    0.36: real time    0.38

 eigenvalue-minimisations  :   576
 total energy-change (2. order) :-0.5420588E-09  (-0.2081595E-12)
 number of electron       7.9999998 magnetization 
 augmentation part       -0.4937553 magnetization 

 Broyden mixing:
  rms(total) = 0.13503E-07    rms(broyden)= 0.12197E-07
  rms(prec ) = 0.34062E-07
  weight for this iteration     100.00

 eigenvalues of (default mixing * dielectric matrix)
  average eigenvalue GAMMA=   2.0143
  3.7152  3.0459  2.8825  2.6010  2.5088  2.2462  0.9652  0.9927  0.9927  1.1038
  1.1038

 Free energy of the ion-electron system (eV)
  ---------------------------------------------------
  alpha Z        PSCENC =         1.79300593
  Ewald energy   TEWEN  =      -185.31449603
  -Hartree energ DENC   =       -23.69288212
  -exchange      EXHF   =         0.00000000
  -V(xc)+E(xc)   XCENC  =       -20.39876762
  PAW double counting   =        64.24618700      -28.99674509
  entropy T*S    EENTRO =        -0.00079725
  eigenvalues    EBANDS =       -22.13866793
  atomic energy  EATOM  =       206.13311910
  ---------------------------------------------------
  free energy    TOTEN  =        -8.37004400 eV

  energy without entropy =       -8.36924675  energy(sigma->0) =       -8.36964538


--------------------------------------------------------------------------------------------------------




----------------------------------------- Iteration    1(  17)  ---------------------------------------


    POTLOK:  cpu time    0.02: real time    0.03
    SETDIJ:  cpu time    0.00: real time    0.00
     EDDAV:  cpu time    0.31: real time    0.31
       DOS:  cpu time    0.00: real time    0.00
    --------------------------------------------
      LOOP:  cpu time    0.33: real time    0.35

 eigenvalue-minimisations  :   576
 total energy-change (2. order) :-0.4465051E-10  (-0.7266885E-13)
 number of electron       7.9999998 magnetization 
 augmentation part       -0.4937553 magnetization 

 Free energy of the ion-electron system (eV)
  ---------------------------------------------------
  alpha Z        PSCENC =         1.79300593
  Ewald energy   TEWEN  =      -185.31449603
  -Hartree energ DENC   =       -23.69288193
  -exchange      EXHF   =         0.00000000
  -V(xc)+E(xc)   XCENC  =       -20.39876764
  PAW double counting   =        64.24618661      -28.99674467
  entropy T*S    EENTRO =        -0.00079725
  eigenvalues    EBANDS =       -22.13866812
  atomic energy  EATOM  =       206.13311910
  ---------------------------------------------------
  free energy    TOTEN  =        -8.37004400 eV

  energy without entropy =       -8.36924675  energy(sigma->0) =       -8.36964538


--------------------------------------------------------------------------------------------------------




 average (electrostatic) potential at core
  the test charge radii are     0.9892
  (the norm of the test charge is              1.0000)
       1 -88.8081       2 -88.8081
 
 
 
 E-fermi :   0.9608     XC(G=0):  -7.1278     alpha+bet : -6.3875


 k-point     1 :       0.0000    0.0000    0.0000
  band No.  band energies     occupation 
      1      -7.6816      2.00000
      2      -1.1631      2.00000
      3       1.0348      0.09879
      4       1.0348      0.09879
      5       1.0348      0.09879
      6       3.1351      0.00000
      7       3.1351      0.00000
      8       3.1351      0.00000

 k-point     2 :       0.0833    0.0000    0.0000
  band No.  band energies     occupation 
      1      -7.6318      2.00000
      2      -1.4563      2.00000
      3       0.9645      0.92679
      4       0.9645      0.92679
      5       1.1344      0.00193
      6       3.2403      0.00000
      7       3.2403      0.00000
      8       3.2570      0.00000

 k-point     3 :       0.1667    0.0000    0.0000
  band No.  band energies     occupation 
      1      -7.4856      2.00000
      2      -2.1051      2.00000
      3       0.8008      1.99669
      4       0.8008      1.99669
      5       1.1970      0.00016
      6       3.4890      0.00000
      7       3.4890      0.00000
      8       3.6976      0.00000

 k-point     4 :       0.2500    0.0000    0.0000
  band No.  band energies     occupation 
      1      -7.2540      2.00000
      2      -2.8436      2.00000
      3       0.6201      2.00000
      4       0.6201      2.00000
      5       1.1055      0.00612
      6       3.7518      0.00000
      7       3.7518      0.00000
      8       4.4345      0.00000

 k-point     5 :       0.3333    0.0000    0.0000
  band No.  band energies     occupation 
      1      -6.9643      2.00000
      2      -3.5370      2.00000
      3       0.4705      2.00000
      4       0.4705      2.00000
      5       0.9669      0.87935
      6       3.9334      0.00000
      7       3.9334      0.00000
      8       5.3142      0.00000

 k-point     6 :       0.4167    0.0000    0.0000
  band No.  band energies     occupation 
      1      -6.6838      2.00000
      2      -4.0729      2.00000
      3       0.3745      2.00000
      4       0.3745      2.00000
      5       0.8617      1.96271
      6       4.0175      0.00000
      7       4.0175      0.00000
      8       6.1459      0.00000

 k-point     7 :       0.5000    0.0000    0.0000
  band No.  band energies     occupation 
      1      -6.5540      2.00000
      2      -4.2897      2.00000
      3       0.3417      2.00000
      4       0.3417      2.00000
      5       0.8237      1.99172
      6       4.0388      0.00000
      7       4.0388      0.00000
      8       6.5362      0.00000

 k-point     8 :       0.0833    0.0833    0.0000
  band No.  band energies     occupation 
      1      -7.6151      2.00000
      2      -1.5335      2.00000
      3       0.8435      1.98186
      4       0.8435      1.98186
      5       1.3871      0.00000
      6       2.9928      0.00000
      7       3.4076      0.00000
      8       3.4076      0.00000

 k-point     9 :       0.1667    0.0833    0.0000
  band No.  band energies     occupation 
      1      -7.5003      2.00000
      2      -2.0243      2.00000
      3       0.6563      1.99999
      4       0.6569      1.99999
      5       1.6089      0.00000
      6       3.0098      0.00000
      7       3.6980      0.00000
      8       3.7659      0.00000

 k-point    10 :       0.2500    0.0833    0.0000
  band No.  band energies     occupation 
      1      -7.2954      2.00000
      2      -2.6944      2.00000
      3       0.4184      2.00000
      4       0.4746      2.00000
      5       1.6300      0.00000
      6       3.2844      0.00000
      7       3.9862      0.00000
      8       4.3155      0.00000

 k-point    11 :       0.3333    0.0833    0.0000
  band No.  band energies     occupation 
      1      -7.0203      2.00000
      2      -3.3797      2.00000
      3       0.1812      2.00000
      4       0.3389      2.00000
      5       1.5331      0.00000
      6       3.6182      0.00000
      7       4.1731      0.00000
      8       4.9879      0.00000

 k-point    12 :       0.4167    0.0833    0.0000
  band No.  band energies     occupation 
      1      -6.7241      2.00000
      2      -3.9644      2.00000
      3      -0.0049      2.00000
      4       0.2673      2.00000
      5       1.4261      0.00000
      6       3.8487      0.00000
      7       4.2329      0.00000
      8       5.7223      0.00000

 k-point    13 :       0.5000    0.0833    0.0000
  band No.  band energies     occupation 
      1      -6.5233      2.00000
      2      -4.3012      2.00000
      3      -0.1158      2.00000
      4       0.2656      2.00000
      5       1.3597      0.00000
      6       3.9763      0.00000
      7       4.2036      0.00000
      8       6.3019      0.00000

 k-point    14 :      -0.4167    0.0833    0.0000
  band No.  band energies     occupation 
      1      -6.5697      2.00000
      2      -4.2270      2.00000
      3      -0.1408      2.00000
      4       0.3322      2.00000
      5       1.3516      0.00000
      6       4.0446      0.00000
      7       4.1212      0.00000
      8       6.1941      0.00000

 k-point    15 :      -0.3333    0.0833    0.0000
  band No.  band energies     occupation 
      1      -6.8212      2.00000
      2      -3.7861      2.00000
      3      -0.0752      2.00000
      4       0.4596      2.00000
      5       1.3990      0.00000
      6       3.9829      0.00000
      7       4.0425      0.00000
      8       5.4987      0.00000

 k-point    16 :      -0.2500    0.0833    0.0000
  band No.  band energies     occupation 
      1      -7.1189      2.00000
      2      -3.1557      2.00000
      3       0.0818      2.00000
      4       0.6310      2.00000
      5       1.4740      0.00000
      6       3.7679      0.00000
      7       3.8889      0.00000
      8       4.7518      0.00000

 k-point    17 :      -0.1667    0.0833    0.0000
  band No.  band energies     occupation 
      1      -7.3738      2.00000
      2      -2.4657      2.00000
      3       0.3269      2.00000
      4       0.8144      1.99431
      5       1.5011      0.00000
      6       3.5003      0.00000
      7       3.5507      0.00000
      8       4.1630      0.00000

 k-point    18 :      -0.0833    0.0833    0.0000
  band No.  band energies     occupation 
      1      -7.5497      2.00000
      2      -1.8378      2.00000
      3       0.6461      1.99999
      4       0.9502      1.20954
      5       1.3629      0.00000
      6       3.2800      0.00000
      7       3.2829      0.00000
      8       3.6708      0.00000

 k-point    19 :       0.1667    0.1667    0.0000
  band No.  band energies     occupation 
      1      -7.4170      2.00000
      2      -2.2844      2.00000
      3       0.4556      2.00000
      4       0.4556      2.00000
      5       2.0336      0.00000
      6       2.6835      0.00000
      7       4.0353      0.00000
      8       4.0353      0.00000

 k-point    20 :       0.2500    0.1667    0.0000
  band No.  band energies     occupation 
      1      -7.2406      2.00000
      2      -2.7862      2.00000
      3       0.2096      2.00000
      4       0.2682      2.00000
      5       2.2196      0.00000
      6       2.7110      0.00000
      7       4.3780      0.00000
      8       4.4495      0.00000

 k-point    21 :       0.3333    0.1667    0.0000
  band No.  band energies     occupation 
      1      -6.9851      2.00000
      2      -3.3810      2.00000
      3      -0.0967      2.00000
      4       0.1332      2.00000
      5       2.1792      0.00000
      6       3.0907      0.00000
      7       4.6152      0.00000
      8       4.8320      0.00000

 k-point    22 :       0.4167    0.1667    0.0000
  band No.  band energies     occupation 
      1      -6.6854      2.00000
      2      -3.9494      2.00000
      3      -0.3769      2.00000
      4       0.0686      2.00000
      5       2.0746      0.00000
      6       3.5544      0.00000
      7       4.6952      0.00000
      8       5.1859      0.00000

 k-point    23 :       0.5000    0.1667    0.0000
  band No.  band energies     occupation 
      1      -6.4307      2.00000
      2      -4.3580      2.00000
      3      -0.5754      2.00000
      4       0.0803      2.00000
      5       1.9902      0.00000
      6       3.8846      0.00000
      7       4.6456      0.00000
      8       5.6684      0.00000

 k-point    24 :      -0.4167    0.1667    0.0000
  band No.  band energies     occupation 
      1      -6.3890      2.00000
      2      -4.4195      2.00000
      3      -0.6664      2.00000
      4       0.1655      2.00000
      5       1.9498      0.00000
      6       4.0687      0.00000
      7       4.5118      0.00000
      8       5.9373      0.00000

 k-point    25 :      -0.3333    0.1667    0.0000
  band No.  band energies     occupation 
      1      -6.5997      2.00000
      2      -4.0944      2.00000
      3      -0.6341      2.00000
      4       0.3138      2.00000
      5       1.9466      0.00000
      6       4.1535      0.00000
      7       4.3063      0.00000
      8       5.4527      0.00000

 k-point    26 :      -0.2500    0.1667    0.0000
  band No.  band energies     occupation 
      1      -6.8988      2.00000
      2      -3.5654      2.00000
      3      -0.4638      2.00000
      4       0.5031      2.00000
      5       1.9367      0.00000
      6       4.0263      0.00000
      7       4.0446      0.00000
      8       4.8913      0.00000

 k-point    27 :      -0.1667    0.1667    0.0000
  band No.  band energies     occupation 
      1      -7.1720      2.00000
      2      -2.9868      2.00000
      3      -0.1420      2.00000
      4       0.6924      1.99996
      5       1.8174      0.00000
      6       3.7184      0.00000
      7       3.7253      0.00000
      8       4.5634      0.00000

 k-point    28 :       0.2500    0.2500    0.0000
  band No.  band energies     occupation 
      1      -7.0920      2.00000
      2      -3.1152      2.00000
      3       0.0721      2.00000
      4       0.0721      2.00000
      5       2.3814      0.00000
      6       2.5141      0.00000
      7       4.8030      0.00000
      8       4.8030      0.00000

 k-point    29 :       0.3333    0.2500    0.0000
  band No.  band energies     occupation 
      1      -6.8591      2.00000
      2      -3.5828      2.00000
      3      -0.1761      2.00000
      4      -0.0718      2.00000
      5       2.3857      0.00000
      6       2.6611      0.00000
      7       5.1005      0.00000
      8       5.1353      0.00000

 k-point    30 :       0.4167    0.2500    0.0000
  band No.  band energies     occupation 
      1      -6.5654      2.00000
      2      -4.0832      2.00000
      3      -0.5068      2.00000
      4      -0.1431      2.00000
      5       2.3577      0.00000
      6       3.1129      0.00000
      7       5.1678      0.00000
      8       5.2858      0.00000

 k-point    31 :       0.5000    0.2500    0.0000
  band No.  band energies     occupation 
      1      -6.2746      2.00000
      2      -4.5067      2.00000
      3      -0.7961      2.00000
      4      -0.1345      2.00000
      5       2.3013      0.00000
[...]
      8       5.8698      0.00000

 k-point    37 :       0.5000    0.3333    0.0000
  band No.  band energies     occupation 
      1      -6.0550      2.00000
      2      -4.7655      2.00000
      3      -0.7655      2.00000
      4      -0.3189      2.00000
      5       2.3037      0.00000
      6       3.1378      0.00000
      7       5.6696      0.00000
      8       5.8911      0.00000

 k-point    38 :      -0.4167    0.3333    0.0000
  band No.  band energies     occupation 
      1      -5.8646      2.00000
      2      -4.9846      2.00000
      3      -1.0191      2.00000
      4      -0.2419      2.00000
      5       2.3156      0.00000
      6       3.8930      0.00000
      7       5.5433      0.00000
      8       5.6848      0.00000

 k-point    39 :      -0.3333    0.3333    0.0000
  band No.  band energies     occupation 
      1      -6.0184      2.00000
      2      -4.8056      2.00000
      3      -1.1122      2.00000
      4      -0.0928      2.00000
      5       2.3337      0.00000
      6       4.5621      0.00000
      7       5.2913      0.00000
      8       5.2941      0.00000

 k-point    40 :       0.4167    0.4167    0.0000
  band No.  band energies     occupation 
      1      -6.0954      2.00000
      2      -4.7240      2.00000
      3      -0.4177      2.00000
      4      -0.4177      2.00000
      5       2.1279      0.00000
      6       2.4203      0.00000
      7       6.2871      0.00000
      8       6.2871      0.00000

 k-point    41 :       0.5000    0.4167    0.0000
  band No.  band energies     occupation 
      1      -5.7758      2.00000
      2      -5.0979      2.00000
      3      -0.5896      2.00000
      4      -0.4399      2.00000
      5       2.2312      0.00000
      6       2.5084      0.00000
      7       6.3221      0.00000
      8       6.3983      0.00000

 k-point    42 :      -0.4167    0.4167    0.0000
  band No.  band energies     occupation 
      1      -5.5912      2.00000
      2      -5.2867      2.00000
      3      -0.8536      2.00000
      4      -0.3790      2.00000
      5       2.2704      0.00000
      6       3.1197      0.00000
      7       6.0440      0.00000
      8       6.1724      0.00000

 k-point    43 :       0.5000    0.5000    0.0000
  band No.  band energies     occupation 
      1      -5.4487      2.00000
      2      -5.4487      2.00000
      3      -0.4818      2.00000
      4      -0.4818      2.00000
      5       2.2202      0.00000
      6       2.2202      0.00000
      7       6.5954      0.00000
      8       6.5954      0.00000

 k-point    44 :       0.2500    0.1667    0.0833
  band No.  band energies     occupation 
      1      -7.3552      2.00000
      2      -2.4942      2.00000
      3       0.2525      2.00000
      4       0.6058      2.00000
      5       1.8794      0.00000
      6       2.9991      0.00000
      7       3.9427      0.00000
      8       4.2179      0.00000

 k-point    45 :       0.3333    0.1667    0.0833
  band No.  band energies     occupation 
      1      -7.1247      2.00000
      2      -3.0950      2.00000
      3      -0.0853      2.00000
      4       0.4635      2.00000
      5       1.9718      0.00000
      6       3.2671      0.00000
      7       4.2457      0.00000
      8       4.6310      0.00000

 k-point    46 :       0.4167    0.1667    0.0833
  band No.  band energies     occupation 
      1      -6.8346      2.00000
      2      -3.7033      2.00000
      3      -0.3277      2.00000
      4       0.3058      2.00000
      5       1.9298      0.00000
      6       3.6386      0.00000
      7       4.4248      0.00000
      8       5.0975      0.00000

 k-point    47 :       0.5000    0.1667    0.0833
  band No.  band energies     occupation 
      1      -6.5498      2.00000
      2      -4.1979      2.00000
      3      -0.4712      2.00000
      4       0.1929      2.00000
      5       1.8692      0.00000
      6       3.8813      0.00000
      7       4.4671      0.00000
      8       5.6904      0.00000

 k-point    48 :      -0.4167    0.1667    0.0833
  band No.  band energies     occupation 
      1      -6.4156      2.00000
      2      -4.4049      2.00000
      3      -0.5186      2.00000
      4       0.1527      2.00000
      5       1.8444      0.00000
      6       3.9533      0.00000
      7       4.4707      0.00000
      8       6.0662      0.00000

 k-point    49 :       0.3333    0.2500    0.0833
  band No.  band energies     occupation 
      1      -7.0368      2.00000
      2      -3.2485      2.00000
      3      -0.1258      2.00000
      4       0.1648      2.00000
      5       2.4382      0.00000
      6       2.7122      0.00000
      7       4.7367      0.00000
      8       4.7448      0.00000

 k-point    50 :       0.4167    0.2500    0.0833
  band No.  band energies     occupation 
      1      -6.7615      2.00000
      2      -3.7746      2.00000
      3      -0.4408      2.00000
      4       0.0313      2.00000
      5       2.4517      0.00000
      6       3.1007      0.00000
      7       4.8364      0.00000
      8       5.0659      0.00000

 k-point    51 :       0.5000    0.2500    0.0833
  band No.  band energies     occupation 
      1      -6.4597      2.00000
      2      -4.2622      2.00000
      3      -0.6869      2.00000
      4      -0.0609      2.00000
      5       2.3874      0.00000
      6       3.6172      0.00000
      7       4.8965      0.00000
      8       5.2809      0.00000

 k-point    52 :      -0.4167    0.2500    0.0833
  band No.  band energies     occupation 
      1      -6.2503      2.00000
      2      -4.5596      2.00000
      3      -0.8372      2.00000
      4      -0.0691      2.00000
      5       2.3448      0.00000
      6       3.9451      0.00000
      7       4.9487      0.00000
      8       5.5360      0.00000

 k-point    53 :      -0.3333    0.2500    0.0833
  band No.  band energies     occupation 
      1      -6.3086      2.00000
      2      -4.4795      2.00000
      3      -0.8693      2.00000
      4       0.0094      2.00000
      5       2.3353      0.00000
      6       4.0203      0.00000
      7       4.8705      0.00000
      8       5.5158      0.00000

 k-point    54 :      -0.2500    0.2500    0.0833
  band No.  band energies     occupation 
      1      -6.5749      2.00000
      2      -4.0883      2.00000
      3      -0.7633      2.00000
      4       0.1571      2.00000
      5       2.3305      0.00000
      6       3.8373      0.00000
      7       4.7570      0.00000
      8       5.0808      0.00000

 k-point    55 :      -0.1667    0.2500    0.0833
  band No.  band energies     occupation 
      1      -6.8743      2.00000
      2      -3.5864      2.00000
      3      -0.5025      2.00000
      4       0.3337      2.00000
      5       2.2424      0.00000
      6       3.4776      0.00000
      7       4.5945      0.00000
      8       4.7658      0.00000

 k-point    56 :       0.4167    0.3333    0.0833
  band No.  band energies     occupation 
      1      -6.6031      2.00000
      2      -4.0128      2.00000
      3      -0.4080      2.00000
      4      -0.2044      2.00000
      5       2.5118      0.00000
      6       2.6911      0.00000
      7       5.1989      0.00000
      8       5.5583      0.00000

 k-point    57 :       0.5000    0.3333    0.0833
  band No.  band energies     occupation 
      1      -6.2977      2.00000
      2      -4.4545      2.00000
      3      -0.6885      2.00000
      4      -0.3019      2.00000
      5       2.5657      0.00000
      6       3.1261      0.00000
      7       5.1344      0.00000
      8       5.7585      0.00000

 k-point    58 :      -0.4167    0.3333    0.0833
  band No.  band energies     occupation 
      1      -6.0305      2.00000
      2      -4.7936      2.00000
      3      -0.9336      2.00000
      4      -0.3015      2.00000
      5       2.5484      0.00000
      6       3.8050      0.00000
      7       5.1018      0.00000
      8       5.6522      0.00000

 k-point    59 :      -0.3333    0.3333    0.0833
  band No.  band energies     occupation 
      1      -6.0181      2.00000
      2      -4.8070      2.00000
      3      -1.0572      2.00000
      4      -0.2071      2.00000
      5       2.5519      0.00000
      6       4.2944      0.00000
      7       5.2141      0.00000
      8       5.2736      0.00000

 k-point    60 :      -0.2500    0.3333    0.0833
  band No.  band energies     occupation 
      1      -6.2721      2.00000
      2      -4.4928      2.00000
      3      -1.0091      2.00000
      4      -0.0403      2.00000
      5       2.5227      0.00000
      6       4.2159      0.00000
      7       4.9351      0.00000
      8       5.2317      0.00000

 k-point    61 :       0.5000    0.4167    0.0833
  band No.  band energies     occupation 
      1      -6.0667      2.00000
      2      -4.7521      2.00000
      3      -0.5638      2.00000
      4      -0.4593      2.00000
      5       2.4379      0.00000
      6       2.6292      0.00000
      7       5.7860      0.00000
      8       6.2029      0.00000

 k-point    62 :      -0.4167    0.4167    0.0833
  band No.  band energies     occupation 
      1      -5.7593      2.00000
      2      -5.1014      2.00000
      3      -0.8125      2.00000
      4      -0.4821      2.00000
      5       2.5328      0.00000
      6       3.1318      0.00000
      7       5.6637      0.00000
      8       6.0603      0.00000

 k-point    63 :      -0.3333    0.4167    0.0833
  band No.  band energies     occupation 
      1      -5.7335      2.00000
      2      -5.1227      2.00000
      3      -1.0218      2.00000
      4      -0.3836      2.00000
      5       2.5627      0.00000
      6       3.8967      0.00000
      7       5.4814      0.00000
      8       5.5380      0.00000

 k-point    64 :      -0.4167    0.5000    0.0833
  band No.  band energies     occupation 
      1      -5.4435      2.00000
      2      -5.4435      2.00000
      3      -0.5814      2.00000
      4      -0.5814      2.00000
      5       2.4932      0.00000
      6       2.4932      0.00000
      7       6.2904      0.00000
      8       6.2904      0.00000

 k-point    65 :       0.5000    0.3333    0.1667
  band No.  band energies     occupation 
      1      -6.4735      2.00000
      2      -4.2130      2.00000
      3      -0.7433      2.00000
      4      -0.1277      2.00000
      5       2.7616      0.00000
      6       3.2859      0.00000
      7       4.7911      0.00000
      8       5.4391      0.00000

 k-point    66 :      -0.4167    0.3333    0.1667
  band No.  band energies     occupation 
      1      -6.1737      2.00000
      2      -4.6158      2.00000
      3      -0.9274      2.00000
      4      -0.2734      2.00000
      5       2.8341      0.00000
      6       3.7386      0.00000
      7       4.8460      0.00000
      8       5.5456      0.00000

 k-point    67 :      -0.3333    0.3333    0.1667
  band No.  band energies     occupation 
      1      -6.0178      2.00000
      2      -4.8083      2.00000
      3      -0.9881      2.00000
      4      -0.3298      2.00000
      5       2.8367      0.00000
      6       3.9505      0.00000
      7       5.1908      0.00000
      8       5.2496      0.00000

 k-point    68 :      -0.4167    0.4167    0.1667
  band No.  band energies     occupation 
      1      -5.9863      2.00000
      2      -4.8351      2.00000
      3      -0.8310      2.00000
      4      -0.5101      2.00000
      5       3.0712      0.00000
      6       3.1803      0.00000
      7       5.0110      0.00000
      8       5.8813      0.00000

 k-point    69 :      -0.3333    0.4167    0.1667
  band No.  band energies     occupation 
      1      -5.7422      2.00000
      2      -5.1055      2.00000
      3      -0.9534      2.00000
      4      -0.5821      2.00000
      5       3.1152      0.00000
      6       3.8051      0.00000
      7       4.9692      0.00000
      8       5.4003      0.00000

 k-point    70 :      -0.2500    0.4167    0.1667
  band No.  band energies     occupation 
      1      -5.8692      2.00000
      2      -4.9649      2.00000
      3      -1.0123      2.00000
      4      -0.4780      2.00000
      5       3.0822      0.00000
      6       4.0107      0.00000
      7       4.8771      0.00000
      8       5.3166      0.00000

 k-point    71 :      -0.3333    0.5000    0.1667
  band No.  band energies     occupation 
      1      -5.4329      2.00000
      2      -5.4329      2.00000
      3      -0.7524      2.00000
      4      -0.7524      2.00000
      5       3.1448      0.00000
      6       3.1448      0.00000
      7       5.5326      0.00000
      8       5.5326      0.00000

 k-point    72 :      -0.2500    0.5000    0.2500
  band No.  band energies     occupation 
      1      -5.4275      2.00000
      2      -5.4275      2.00000
      3      -0.8277      2.00000
      4      -0.8277      2.00000
      5       3.6510      0.00000
      6       3.6510      0.00000
      7       4.9667      0.00000
      8       4.9667      0.00000


--------------------------------------------------------------------------------------------------------


 soft charge-density along one line, spin component           1
         0         1         2         3         4         5         6         7         8         9
 total charge-density along one line
 
 pseudopotential strength for first ion, spin component:           1
 19.003   0.004   0.000   0.000   0.000  -0.000  -0.000  -0.000
  0.004   0.006  -0.000  -0.000  -0.000   0.000   0.000   0.000
  0.000  -0.000   4.247  -0.000  -0.000  -0.001   0.000   0.000
  0.000  -0.000  -0.000   4.247  -0.000   0.000  -0.001   0.000
  0.000  -0.000  -0.000  -0.000   4.247   0.000   0.000  -0.001
 -0.000   0.000  -0.001   0.000   0.000   0.004  -0.000  -0.000
 -0.000   0.000   0.000  -0.001   0.000  -0.000   0.004  -0.000
 -0.000   0.000   0.000   0.000  -0.001  -0.000  -0.000   0.004
 total augmentation occupancy for first ion, spin component:           1
  1.766  -0.070   0.000   0.000   0.000  -0.000   0.000   0.000
 -0.070   0.184  -0.000   0.000   0.000   0.000   0.000  -0.000
  0.000   0.000   0.709   0.000  -0.000  -0.207   0.000   0.000
  0.000   0.000  -0.000   0.709   0.000   0.000  -0.207   0.000
  0.000   0.000   0.000  -0.000   0.709   0.000   0.000  -0.207
 -0.000   0.000  -0.207   0.000   0.000   0.078  -0.000   0.000
 -0.000   0.000   0.000  -0.207   0.000   0.000   0.078  -0.000
  0.000  -0.000   0.000   0.000  -0.207  -0.000   0.000   0.078


------------------------ aborting loop because EDIFF is reached ----------------------------------------


    CHARGE:  cpu time    0.03: real time    0.03
    FORLOC:  cpu time    0.00: real time    0.00
    FORNL :  cpu time    0.05: real time    0.06
    STRESS:  cpu time    0.48: real time    0.49
    FORCOR:  cpu time    0.02: real time    0.02
    FORHAR:  cpu time    0.01: real time    0.01
    MIXING:  cpu time    0.00: real time    0.00
    OFIELD:  cpu time    0.00: real time    0.00

  FORCE on cell =-STRESS in cart. coord.  units (eV):
  Direction    XX          YY          ZZ          XY          YZ          ZX
  --------------------------------------------------------------------------------------
  Alpha Z     1.79301     1.79301     1.79301
  Ewald     -61.77153   -61.77153   -61.77153    -0.00000    -0.00000     0.00000
  Hartree     7.89763     7.89763     7.89763    -0.00000    -0.00000    -0.00000
  E(xc)     -22.75270   -22.75270   -22.75270    -0.00000    -0.00000    -0.00000
  Local     -40.50476   -40.50476   -40.50476     0.00001     0.00001     0.00001
  n-local    76.12718    77.57202    71.79835     1.46777    -0.63785     0.08691
  augment   -12.64685   -12.64685   -12.64685    -0.00001    -0.00001    -0.00001
  Kinetic    49.10063    50.16468    41.44902     3.45531    -1.36048     0.92522
  Fock        0.00000     0.00000     0.00000     0.00000     0.00000     0.00000
  -------------------------------------------------------------------------------------
  Total      -5.91458    -5.91458    -5.91458     0.00000     0.00000     0.00000
  in kB    -126.18338  -126.18338  -126.18338     0.00000     0.00000     0.00000
  external pressure =     -126.18 kB  Pullay stress =        0.00 kB


 VOLUME and BASIS-vectors are now :
 -----------------------------------------------------------------------------
  energy-cutoff  :      600.00
  volume of cell :       75.10
      direct lattice vectors                 reciprocal lattice vectors
     0.000000000  3.348631561  3.348631561    -0.149314725  0.149314725  0.149314725
     3.348631561  0.000000000  3.348631561     0.149314725 -0.149314725  0.149314725
     3.348631561  3.348631561  0.000000000     0.149314725  0.149314725 -0.149314725

  length of vectors
     4.735680169  4.735680169  4.735680169     0.258620690  0.258620690  0.258620690


 FORCES acting on ions
    electron-ion (+dipol)            ewald-force                    non-local-force                 convergence-correction
 -----------------------------------------------------------------------------------------------
   0.182E-07 0.182E-07 0.454E-07   0.419E-14 0.323E-14 0.297E-14   -.278E-16 -.243E-16 -.104E-16   0.128E-12 0.128E-12 0.133E-12
   -.182E-07 -.182E-07 -.454E-07   -.421E-14 -.346E-14 -.288E-14   0.295E-16 0.260E-16 0.243E-16   -.131E-12 -.132E-12 -.127E-12
 -----------------------------------------------------------------------------------------------
   0.118E-12 0.405E-13 0.612E-14   -.153E-16 -.230E-15 0.892E-16   0.173E-17 0.173E-17 0.139E-16   -.315E-14 -.389E-14 0.549E-14
 
 
 POSITION                                       TOTAL-FORCE (eV/Angst)
 -----------------------------------------------------------------------------------
      0.00000      0.00000      0.00000        -0.000000      0.000000      0.000000
      1.67432      1.67432      1.67432         0.000000     -0.000000     -0.000000
 -----------------------------------------------------------------------------------
    total drift:                                0.000000      0.000000      0.000000


--------------------------------------------------------------------------------------------------------



  FREE ENERGIE OF THE ION-ELECTRON SYSTEM (eV)
  ---------------------------------------------------
  free  energy   TOTEN  =        -8.37004400 eV

  energy  without entropy=       -8.36924675  energy(sigma->0) =       -8.36964538
 


--------------------------------------------------------------------------------------------------------


    POTLOK:  cpu time    0.03: real time    0.02


--------------------------------------------------------------------------------------------------------


 writing wavefunctions
     LOOP+:  cpu time   10.65: real time   11.15
    4ORBIT:  cpu time    0.00: real time    0.00

 total amount of memory used by VASP on root node    52375. kBytes
========================================================================

   base      :      30000. kBytes
   nonl-proj :      11804. kBytes
   fftplans  :       1619. kBytes
   grid      :       3048. kBytes
   one-center:          6. kBytes
   wavefun   :       5898. kBytes
 
  
  
 General timing and accounting informations for this job:
 ========================================================
  
                  Total CPU time used (sec):       11.132
                            User time (sec):       10.728
                          System time (sec):        0.404
                         Elapsed time (sec):       11.878
  
                   Maximum memory used (kb):       62196.
                   Average memory used (kb):           0.
  
                          Minor page faults:        10976
                          Major page faults:            7
                 Voluntary context switches:          622
