 vasp.5.3.5 31Mar14 (build Jun 01 2017 17:55:53) complex                        
  
 executed on             LinuxIFC date 2020.11.10  15:21:27
 running on    4 total cores
 distrk:  each k-point on    4 cores,    1 groups
 distr:  one band on NCORES_PER_BAND=   1 cores,    4 groups


--------------------------------------------------------------------------------------------------------


 INCAR:
 POTCAR:   PAW_PBE Si 05Jan2001                   
 POTCAR:   PAW_PBE Si 05Jan2001                   
   VRHFIN =Si: s2p2                                                             
   LEXCH  = PE                                                                  
   EATOM  =   103.0669 eV,    7.5752 Ry                                         
                                                                                
   TITEL  = PAW_PBE Si 05Jan2001                                                
   LULTRA =        F    use ultrasoft PP ?                                      
   IUNSCR =        1    unscreen: 0-lin 1-nonlin 2-no                           
   RPACOR =    1.500    partial core radius                                     
   POMASS =   28.085; ZVAL   =    4.000    mass and valenz                      
   RCORE  =    1.900    outmost cutoff radius                                   
   RWIGS  =    2.480; RWIGS  =    1.312    wigner-seitz radius (au A)           
   ENMAX  =  245.345; ENMIN  =  184.009 eV                                      
   ICORE  =        2    local potential                                         
   LCOR   =        T    correct aug charges                                     
   LPAW   =        T    paw PP                                                  
   EAUG   =  322.069                                                            
   DEXC   =    -.007                                                            
   RMAX   =    2.944    core radius for proj-oper                               
   RAUG   =    1.300    factor for augmentation sphere                          
   RDEP   =    1.993    radius for radial grids                                 
   QCUT   =   -4.246; QGAM   =    8.493    optimization parameters              
                                                                                
   Description                                                                  
     l     E      TYP  RCUT    TYP  RCUT                                        
     0   .000     23  1.900                                                     
     0   .000     23  1.900                                                     
     1   .000     23  1.900                                                     
     1   .000     23  1.900                                                     
     2   .000      7  1.900                                                     
  local pseudopotential read in
  partial core-charges read in
  atomic valenz-charges read in
  non local Contribution for L=           0  read in
    real space projection operators read in
  non local Contribution for L=           0  read in
    real space projection operators read in
  non local Contribution for L=           1  read in
    real space projection operators read in
  non local Contribution for L=           1  read in
    real space projection operators read in
    PAW grid and wavefunctions read in
 
   number of l-projection  operators is LMAX  =           4
   number of lm-projection operators is LMMAX =           8
 
 PAW_PBE Si 05Jan2001                   :
 energy of atom  1       EATOM= -103.0669
 kinetic energy error for atom=    0.0003 (will be added to EATOM!!)
 
 
 POSCAR: Si
  positions in direct lattice
  velocities in cartesian coordinates
  No initial velocities read in
 exchange correlation table for  LEXCH =        8
   RHO(1)=    0.500       N(1)  =     2000
   RHO(2)=  100.500       N(2)  =     4000
 


--------------------------------------------------------------------------------------------------------


 ion  position               nearest neighbor table
   1  0.000  0.000  0.000-
   2  0.250  0.250  0.250-
 
  LATTYP: Found a face centered cubic cell.
 ALAT       =     7.6210235533
  
  Lattice vectors:
  
 A1 = (   0.0000000000,   3.8105117767,   3.8105117767)
 A2 = (   3.8105117767,   0.0000000000,   3.8105117767)
 A3 = (   3.8105117767,   3.8105117767,   0.0000000000)


Analysis of symmetry for initial positions (statically):
=====================================================================
 Subroutine PRICEL returns:
 Original cell was already a primitive cell.
 

 Routine SETGRP: Setting up the symmetry group for a 
 face centered cubic supercell.


 Subroutine GETGRP returns: Found 48 space group operations
 (whereof 24 operations were pure point group operations)
 out of a pool of 48 trial point group operations.


The static configuration has the point symmetry T_d .
 The point group associated with its full space group is O_h .


Analysis of symmetry for dynamics (positions and initial velocities):
=====================================================================
 Subroutine PRICEL returns:
 Original cell was already a primitive cell.
 

 Routine SETGRP: Setting up the symmetry group for a 
 face centered cubic supercell.


 Subroutine GETGRP returns: Found 48 space group operations
 (whereof 24 operations were pure point group operations)
 out of a pool of 48 trial point group operations.


The dynamic configuration has the point symmetry T_d .
 The point group associated with its full space group is O_h .


Analysis of constrained symmetry for selective dynamics:
=====================================================================
 Subroutine PRICEL returns:
 Original cell was already a primitive cell.
 

 Routine SETGRP: Setting up the symmetry group for a 
 face centered cubic supercell.


 Subroutine GETGRP returns: Found 48 space group operations
 (whereof 24 operations were pure point group operations)
 out of a pool of 48 trial point group operations.


The constrained configuration has the point symmetry T_d .
 The point group associated with its full space group is O_h .
 
 
 KPOINTS: Gamma centered Monkhorst-Pack           

Automatic generation of k-mesh.
Space group operators:
 irot       det(A)        alpha          n_x          n_y          n_z        tau_x        tau_y        tau_z
    1     1.000000     0.000001     1.000000     0.000000     0.000000     0.000000     0.000000     0.000000
    2     1.000000   120.000000    -0.577350    -0.577350    -0.577350     0.000000     0.000000     0.000000
    3     1.000000   120.000000     0.577350     0.577350     0.577350     0.000000     0.000000     0.000000
    4    -1.000000    90.000000     0.000000     0.000000    -1.000000     0.000000     0.000000     0.000000
    5    -1.000000   180.000000     0.000000     0.707107     0.707107     0.000000     0.000000     0.000000
    6    -1.000000    90.000000     0.000000     1.000000     0.000000     0.000000     0.000000     0.000000
    7     1.000000   180.000000     0.000000     0.000000     1.000000     0.000000     0.000000     0.000000
    8     1.000000   120.000000    -0.577350     0.577350     0.577350     0.000000     0.000000     0.000000
    9     1.000000   120.000000    -0.577350     0.577350    -0.577350     0.000000     0.000000     0.000000
   10    -1.000000    90.000000     0.000000     0.000000     1.000000     0.000000     0.000000     0.000000
   11    -1.000000    90.000000    -1.000000     0.000000     0.000000     0.000000     0.000000     0.000000
   12    -1.000000   180.000000     0.707107     0.000000     0.707107     0.000000     0.000000     0.000000
   13     1.000000   120.000000     0.577350    -0.577350     0.577350     0.000000     0.000000     0.000000
   14     1.000000   120.000000    -0.577350    -0.577350     0.577350     0.000000     0.000000     0.000000
   15     1.000000   180.000000     1.000000     0.000000     0.000000     0.000000     0.000000     0.000000
   16    -1.000000    90.000000     0.000000    -1.000000     0.000000     0.000000     0.000000     0.000000
   17    -1.000000   180.000000     0.707107     0.707107     0.000000     0.000000     0.000000     0.000000
   18    -1.000000    90.000000     1.000000     0.000000     0.000000     0.000000     0.000000     0.000000
   19     1.000000   120.000000     0.577350    -0.577350    -0.577350     0.000000     0.000000     0.000000
   20     1.000000   180.000000     0.000000     1.000000     0.000000     0.000000     0.000000     0.000000
   21     1.000000   120.000000     0.577350     0.577350    -0.577350     0.000000     0.000000     0.000000
   22    -1.000000   180.000000     0.000000    -0.707107     0.707107     0.000000     0.000000     0.000000
   23    -1.000000   180.000000     0.707107    -0.707107     0.000000     0.000000     0.000000     0.000000
   24    -1.000000   180.000000     0.707107     0.000000    -0.707107     0.000000     0.000000     0.000000
   25    -1.000000     0.000001     1.000000     0.000000     0.000000     0.250000     0.250000     0.250000
   26    -1.000000   120.000000    -0.577350    -0.577350    -0.577350     0.250000     0.250000     0.250000
   27    -1.000000   120.000000     0.577350     0.577350     0.577350     0.250000     0.250000     0.250000
   28     1.000000    90.000000     0.000000     0.000000    -1.000000     0.250000     0.250000     0.250000
   29     1.000000   180.000000     0.000000     0.707107     0.707107     0.250000     0.250000     0.250000
   30     1.000000    90.000000     0.000000     1.000000     0.000000     0.250000     0.250000     0.250000
   31    -1.000000   180.000000     0.000000     0.000000     1.000000     0.250000     0.250000     0.250000
   32    -1.000000   120.000000    -0.577350     0.577350     0.577350     0.250000     0.250000     0.250000
   33    -1.000000   120.000000    -0.577350     0.577350    -0.577350     0.250000     0.250000     0.250000
   34     1.000000    90.000000     0.000000     0.000000     1.000000     0.250000     0.250000     0.250000
   35     1.000000    90.000000    -1.000000     0.000000     0.000000     0.250000     0.250000     0.250000
   36     1.000000   180.000000     0.707107     0.000000     0.707107     0.250000     0.250000     0.250000
   37    -1.000000   120.000000     0.577350    -0.577350     0.577350     0.250000     0.250000     0.250000
   38    -1.000000   120.000000    -0.577350    -0.577350     0.577350     0.250000     0.250000     0.250000
   39    -1.000000   180.000000     1.000000     0.000000     0.000000     0.250000     0.250000     0.250000
   40     1.000000    90.000000     0.000000    -1.000000     0.000000     0.250000     0.250000     0.250000
   41     1.000000   180.000000     0.707107     0.707107     0.000000     0.250000     0.250000     0.250000
   42     1.000000    90.000000     1.000000     0.000000     0.000000     0.250000     0.250000     0.250000
   43    -1.000000   120.000000     0.577350    -0.577350    -0.577350     0.250000     0.250000     0.250000
   44    -1.000000   180.000000     0.000000     1.000000     0.000000     0.250000     0.250000     0.250000
   45    -1.000000   120.000000     0.577350     0.577350    -0.577350     0.250000     0.250000     0.250000
   46     1.000000   180.000000     0.000000    -0.707107     0.707107     0.250000     0.250000     0.250000
   47     1.000000   180.000000     0.707107    -0.707107     0.000000     0.250000     0.250000     0.250000
   48     1.000000   180.000000     0.707107     0.000000    -0.707107     0.250000     0.250000     0.250000
 
 Subroutine IBZKPT returns following result:
 ===========================================
 
 Found     72 irreducible k-points:
 
 Following reciprocal coordinates:
            Coordinates               Weight
  0.000000  0.000000  0.000000      1.000000
  0.083333  0.000000  0.000000      8.000000
  0.166667  0.000000  0.000000      8.000000
  0.250000  0.000000  0.000000      8.000000
  0.333333  0.000000  0.000000      8.000000
  0.416667  0.000000  0.000000      8.000000
  0.500000  0.000000  0.000000      4.000000
  0.083333  0.083333  0.000000      6.000000
  0.166667  0.083333  0.000000     24.000000
  0.250000  0.083333  0.000000     24.000000
  0.333333  0.083333  0.000000     24.000000
  0.416667  0.083333  0.000000     24.000000
  0.500000  0.083333  0.000000     24.000000
 -0.416667  0.083333  0.000000     24.000000
 -0.333333  0.083333  0.000000     24.000000
 -0.250000  0.083333  0.000000     24.000000
 -0.166667  0.083333  0.000000     24.000000
 -0.083333  0.083333  0.000000     12.000000
  0.166667  0.166667  0.000000      6.000000
  0.250000  0.166667  0.000000     24.000000
  0.333333  0.166667  0.000000     24.000000
  0.416667  0.166667  0.000000     24.000000
  0.500000  0.166667  0.000000     24.000000
 -0.416667  0.166667  0.000000     24.000000
 -0.333333  0.166667  0.000000     24.000000
 -0.250000  0.166667  0.000000     24.000000
 -0.166667  0.166667  0.000000     12.000000
  0.250000  0.250000  0.000000      6.000000
  0.333333  0.250000  0.000000     24.000000
  0.416667  0.250000  0.000000     24.000000
  0.500000  0.250000  0.000000     24.000000
 -0.416667  0.250000  0.000000     24.000000
 -0.333333  0.250000  0.000000     24.000000
 -0.250000  0.250000  0.000000     12.000000
  0.333333  0.333333  0.000000      6.000000
  0.416667  0.333333  0.000000     24.000000
  0.500000  0.333333  0.000000     24.000000
 -0.416667  0.333333  0.000000     24.000000
 -0.333333  0.333333  0.000000     12.000000
  0.416667  0.416667  0.000000      6.000000
  0.500000  0.416667  0.000000     24.000000
 -0.416667  0.416667  0.000000     12.000000
  0.500000  0.500000  0.000000      3.000000
  0.250000  0.166667  0.083333     24.000000
  0.333333  0.166667  0.083333     48.000000
  0.416667  0.166667  0.083333     48.000000
  0.500000  0.166667  0.083333     48.000000
 -0.416667  0.166667  0.083333     24.000000
  0.333333  0.250000  0.083333     24.000000
  0.416667  0.250000  0.083333     48.000000
  0.500000  0.250000  0.083333     48.000000
 -0.416667  0.250000  0.083333     48.000000
 -0.333333  0.250000  0.083333     48.000000
 -0.250000  0.250000  0.083333     48.000000
 -0.166667  0.250000  0.083333     24.000000
  0.416667  0.333333  0.083333     24.000000
  0.500000  0.333333  0.083333     48.000000
 -0.416667  0.333333  0.083333     48.000000
 -0.333333  0.333333  0.083333     48.000000
 -0.250000  0.333333  0.083333     24.000000
  0.500000  0.416667  0.083333     24.000000
 -0.416667  0.416667  0.083333     48.000000
 -0.333333  0.416667  0.083333     24.000000
 -0.416667  0.500000  0.083333     12.000000
  0.500000  0.333333  0.166667     24.000000
 -0.416667  0.333333  0.166667     48.000000
 -0.333333  0.333333  0.166667     24.000000
 -0.416667  0.416667  0.166667     24.000000
 -0.333333  0.416667  0.166667     48.000000
 -0.250000  0.416667  0.166667     24.000000
 -0.333333  0.500000  0.166667     12.000000
 -0.250000  0.500000  0.250000      6.000000
 
 Following cartesian coordinates:
            Coordinates               Weight
  0.000000  0.000000  0.000000      1.000000
 -0.083333  0.083333  0.083333      8.000000
 -0.166667  0.166667  0.166667      8.000000
 -0.250000  0.250000  0.250000      8.000000
 -0.333333  0.333333  0.333333      8.000000
 -0.416667  0.416667  0.416667      8.000000
 -0.500000  0.500000  0.500000      4.000000
  0.000000  0.000000  0.166667      6.000000
 -0.083333  0.083333  0.250000     24.000000
 -0.166667  0.166667  0.333333     24.000000
 -0.250000  0.250000  0.416667     24.000000
 -0.333333  0.333333  0.500000     24.000000
 -0.416667  0.416667  0.583333     24.000000
  0.500000 -0.500000 -0.333333     24.000000
  0.416667 -0.416667 -0.250000     24.000000
  0.333333 -0.333333 -0.166667     24.000000
  0.250000 -0.250000 -0.083333     24.000000
  0.166667 -0.166667  0.000000     12.000000
  0.000000  0.000000  0.333333      6.000000
 -0.083333  0.083333  0.416667     24.000000
 -0.166667  0.166667  0.500000     24.000000
 -0.250000  0.250000  0.583333     24.000000
 -0.333333  0.333333  0.666667     24.000000
  0.583333 -0.583333 -0.250000     24.000000
  0.500000 -0.500000 -0.166667     24.000000
  0.416667 -0.416667 -0.083333     24.000000
  0.333333 -0.333333  0.000000     12.000000
  0.000000  0.000000  0.500000      6.000000
 -0.083333  0.083333  0.583333     24.000000
 -0.166667  0.166667  0.666667     24.000000
 -0.250000  0.250000  0.750000     24.000000
  0.666667 -0.666667 -0.166667     24.000000
  0.583333 -0.583333 -0.083333     24.000000
  0.500000 -0.500000  0.000000     12.000000
  0.000000  0.000000  0.666667      6.000000
 -0.083333  0.083333  0.750000     24.000000
 -0.166667  0.166667  0.833333     24.000000
  0.750000 -0.750000 -0.083333     24.000000
  0.666667 -0.666667  0.000000     12.000000
  0.000000  0.000000  0.833333      6.000000
 -0.083333  0.083333  0.916667     24.000000
  0.833333 -0.833333  0.000000     12.000000
  0.000000  0.000000  1.000000      3.000000
  0.000000  0.166667  0.333333     24.000000
 -0.083333  0.250000  0.416667     48.000000
 -0.166667  0.333333  0.500000     48.000000
 -0.250000  0.416667  0.583333     48.000000
  0.666667 -0.500000 -0.333333     24.000000
  0.000000  0.166667  0.500000     24.000000
 -0.083333  0.250000  0.583333     48.000000
 -0.166667  0.333333  0.666667     48.000000
  0.750000 -0.583333 -0.250000     48.000000
  0.666667 -0.500000 -0.166667     48.000000
  0.583333 -0.416667 -0.083333     48.000000
  0.500000 -0.333333  0.000000     24.000000
 -0.000000  0.166667  0.666667     24.000000
 -0.083333  0.250000  0.750000     48.000000
  0.833333 -0.666667 -0.166667     48.000000
  0.750000 -0.583333 -0.083333     48.000000
  0.666667 -0.500000  0.000000     24.000000
  0.000000  0.166667  0.833333     24.000000
  0.916667 -0.750000 -0.083333     48.000000
  0.833333 -0.666667  0.000000     24.000000
  1.000000 -0.833333  0.000000     12.000000
  0.000000  0.333333  0.666667     24.000000
  0.916667 -0.583333 -0.250000     48.000000
  0.833333 -0.500000 -0.166667     24.000000
  1.000000 -0.666667 -0.166667     24.000000
  0.916667 -0.583333 -0.083333     48.000000
  0.833333 -0.500000  0.000000     24.000000
  1.000000 -0.666667  0.000000     12.000000
  1.000000 -0.500000  0.000000      6.000000
 


--------------------------------------------------------------------------------------------------------




 Dimension of arrays:
   k-points           NKPTS =     72   k-points in BZ     NKDIM =     72   number of bands    NBANDS=      8
   number of dos      NEDOS =    301   number of ions     NIONS =      2
   non local maximal  LDIM  =      4   non local SUM 2l+1 LMDIM =      8
   total plane-waves  NPLWV =  32768
   max r-space proj   IRMAX =      1   max aug-charges    IRDMAX=  10099
   dimension x,y,z NGX =    32 NGY =   32 NGZ =   32
   dimension x,y,z NGXF=    64 NGYF=   64 NGZF=   64
   support grid    NGXF=    64 NGYF=   64 NGZF=   64
   ions per type =               2
 NGX,Y,Z   is equivalent  to a cutoff of   9.87,  9.87,  9.87 a.u.
 NGXF,Y,Z  is equivalent  to a cutoff of  19.74, 19.74, 19.74 a.u.


 I would recommend the setting:
   dimension x,y,z NGX =    32 NGY =   32 NGZ =   32
 SYSTEM =  Si
 POSCAR =  Si

 Startparameter for this run:
   NWRITE =      2    write-flag & timer
   PREC   = normal    normal or accurate (medium, high low for compatibility)
   ISTART =      0    job   : 0-new  1-cont  2-samecut
   ICHARG =      2    charge: 1-file 2-atom 10-const
   ISPIN  =      1    spin polarized calculation?
   LNONCOLLINEAR =      F non collinear calculations
   LSORBIT =      F    spin-orbit coupling
   INIWAV =      1    electr: 0-lowe 1-rand  2-diag
   LASPH  =      F    aspherical Exc in radial PAW
   METAGGA=      F    non-selfconsistent MetaGGA calc.

 Electronic Relaxation 1
   ENCUT  =  600.0 eV  44.10 Ry    6.64 a.u.  10.76 10.76 10.76*2*pi/ulx,y,z
   ENINI  =  600.0     initial cutoff
   ENAUG  = 1200.0 eV  augmentation charge cutoff
   NELM   =    500;   NELMIN=  2; NELMDL= -5     # of ELM steps 
   EDIFF  = 0.1E-09   stopping-criterion for ELM
   LREAL  =      F    real-space projection
   NLSPLINE    = F    spline interpolate recip. space projectors
   LCOMPAT=      F    compatible to vasp.4.4
   GGA_COMPAT  = T    GGA compatible to vasp.4.4-vasp.4.6
   LMAXPAW     = -100 max onsite density
   LMAXMIX     =    2 max onsite mixed and CHGCAR
   VOSKOWN=      0    Vosko Wilk Nusair interpolation
   ROPT   =    0.00000
 Ionic relaxation
   EDIFFG = 0.1E-08   stopping-criterion for IOM
   NSW    =      0    number of steps for IOM
   NBLOCK =      1;   KBLOCK =      1    inner block; outer block 
   IBRION =     -1    ionic relax: 0-MD 1-quasi-New 2-CG
   NFREE  =      0    steps in history (QN), initial steepest desc. (CG)
   ISIF   =      2    stress and relaxation
   IWAVPR =     10    prediction:  0-non 1-charg 2-wave 3-comb
   ISYM   =      2    0-nonsym 1-usesym 2-fastsym
   LCORR  =      T    Harris-Foulkes like correction to forces

   POTIM  = 0.5000    time-step for ionic-motion
   TEIN   =    0.0    initial temperature
   TEBEG  =    0.0;   TEEND  =   0.0 temperature during run
   SMASS  =  -3.00    Nose mass-parameter (am)
   estimated Nose-frequenzy (Omega)   =  0.10E-29 period in steps =****** mass=  -0.664E-27a.u.
   SCALEE = 1.0000    scale energy and forces
   NPACO  =    256;   APACO  = 16.0  distance and # of slots for P.C.
   PSTRESS=    0.0 pullay stress

  Mass of Ions in am
   POMASS =  28.09
  Ionic Valenz
   ZVAL   =   4.00
  Atomic Wigner-Seitz radii
   RWIGS  =  -1.00
  virtual crystal weights 
   VCA    =   1.00
   NELECT =       8.0000    total number of electrons
   NUPDOWN=      -1.0000    fix difference up-down

 DOS related values:
   EMIN   =  10.00;   EMAX   =-10.00  energy-range for DOS
   EFERMI =   0.00
   ISMEAR =    -1;   SIGMA  =   0.03  broadening in eV -4-tet -1-fermi 0-gaus

 Electronic relaxation 2 (details)
   IALGO  =     38    algorithm
   LDIAG  =      T    sub-space diagonalisation (order eigenvalues)
   LSUBROT=      F    optimize rotation matrix (better conditioning)
   TURBO    =      0    0=normal 1=particle mesh
   IRESTART =      0    0=no restart 2=restart with 2 vectors
   NREBOOT  =      0    no. of reboots
   NMIN     =      0    reboot dimension
   EREF     =   0.00    reference energy to select bands
   IMIX   =      4    mixing-type and parameters
     AMIX     =   0.40;   BMIX     =  1.00
     AMIX_MAG =   1.60;   BMIX_MAG =  1.00
     AMIN     =   0.10
     WC   =   100.;   INIMIX=   1;  MIXPRE=   1;  MAXMIX= -45

 Intra band minimization:
   WEIMIN = 0.0000     energy-eigenvalue tresh-hold
   EBREAK =  0.31E-11  absolut break condition
   DEPER  =   0.30     relativ break condition  

   TIME   =   0.40     timestep for ELM

  volume/ion in A,a.u.               =      55.33       373.38
  Fermi-wavevector in a.u.,A,eV,Ry     =   0.681990  1.288775  6.328216  0.465111
  Thomas-Fermi vector in A             =   1.760934
 
 Write flags
   LWAVE  =      T    write WAVECAR
   LCHARG =      T    write CHGCAR
   LVTOT  =      F    write LOCPOT, total local potential
   LVHAR  =      F    write LOCPOT, Hartree potential only
   LELF   =      F    write electronic localiz. function (ELF)
   LORBIT =      0    0 simple, 1 ext, 2 COOP (PROOUT)


 Dipole corrections
   LMONO  =      F    monopole corrections only (constant potential shift)
   LDIPOL =      F    correct potential (dipole corrections)
   IDIPOL =      0    1-x, 2-y, 3-z, 4-all directions 
   EPSILON=  1.0000000 bulk dielectric constant

 Exchange correlation treatment:
   GGA     =    PE    GGA type
   LEXCH   =     8    internal setting for exchange type
   VOSKOWN=      0    Vosko Wilk Nusair interpolation
   LHFCALC =     F    Hartree Fock is set to
   LHFONE  =     F    Hartree Fock one center treatment
   AEXX    =    0.0000 exact exchange contribution

 Linear response parameters
   LEPSILON=     F    determine dielectric tensor
   LRPA    =     F    only Hartree local field effects (RPA)
   LNABLA  =     F    use nabla operator in PAW spheres
   LVEL    =     F    velocity operator in full k-point grid
   LINTERFAST=   F  fast interpolation
   KINTER  =     0    interpolate to denser k-point grid
   CSHIFT  =0.1000    complex shift for real part using Kramers Kronig
   OMEGAMAX=  -1.0    maximum frequency
   DEG_THRESHOLD= 0.2000000E-02 threshold for treating states as degnerate
   RTIME   =    0.100 relaxation time in fs

 Orbital magnetization related:
   ORBITALMAG=     F  switch on orbital magnetization
   LCHIMAG   =     F  perturbation theory with respect to B field
   DQ        =  0.001000  dq finite difference perturbation B field



--------------------------------------------------------------------------------------------------------


 Static calculation
 charge density and potential will be updated during run
 non-spin polarized calculation
 Variant of blocked Davidson
 Davidson routine will perform the subspace rotation
 perform sub-space diagonalisation
    after iterative eigenvector-optimisation
 modified Broyden-mixing scheme, WC =      100.0
 initial mixing is a Kerker type mixing with AMIX =  0.4000 and BMIX =      1.0000
 Hartree-type preconditioning will be used
 using additional bands            4
 reciprocal scheme for non local part
 use partial core corrections
 calculate Harris-corrections to forces 
   (improved forces if not selfconsistent)
 use gradient corrections 
 use of overlap-Matrix (Vanderbilt PP)
 Fermi-smearing in eV        SIGMA  =   0.03


--------------------------------------------------------------------------------------------------------


  energy-cutoff  :      600.00
  volume of cell :      110.66
      direct lattice vectors                 reciprocal lattice vectors
     0.000000000  3.810511777  3.810511777    -0.131215970  0.131215970  0.131215970
     3.810511777  0.000000000  3.810511777     0.131215970 -0.131215970  0.131215970
     3.810511777  3.810511777  0.000000000     0.131215970  0.131215970 -0.131215970

  length of vectors
     5.388877434  5.388877434  5.388877434     0.227272727  0.227272727  0.227272727


 
 k-points in units of 2pi/SCALE and weight: Gamma centered Monkhorst-Pack           
   0.00000000  0.00000000  0.00000000       0.001
  -0.08333333  0.08333333  0.08333333       0.005
  -0.16666667  0.16666667  0.16666667       0.005
  -0.25000000  0.25000000  0.25000000       0.005
  -0.33333333  0.33333333  0.33333333       0.005
  -0.41666667  0.41666667  0.41666667       0.005
  -0.50000000  0.50000000  0.50000000       0.002
   0.00000000  0.00000000  0.16666667       0.003
  -0.08333333  0.08333333  0.25000000       0.014
  -0.16666667  0.16666667  0.33333333       0.014
  -0.25000000  0.25000000  0.41666667       0.014
  -0.33333333  0.33333333  0.50000000       0.014
  -0.41666667  0.41666667  0.58333333       0.014
   0.50000000 -0.50000000 -0.33333333       0.014
   0.41666667 -0.41666667 -0.25000000       0.014
   0.33333333 -0.33333333 -0.16666667       0.014
   0.25000000 -0.25000000 -0.08333333       0.014
   0.16666667 -0.16666667  0.00000000       0.007
   0.00000000  0.00000000  0.33333333       0.003
  -0.08333333  0.08333333  0.41666667       0.014
  -0.16666667  0.16666667  0.50000000       0.014
  -0.25000000  0.25000000  0.58333333       0.014
  -0.33333333  0.33333333  0.66666667       0.014
   0.58333333 -0.58333333 -0.25000000       0.014
   0.50000000 -0.50000000 -0.16666667       0.014
   0.41666667 -0.41666667 -0.08333333       0.014
   0.33333333 -0.33333333  0.00000000       0.007
   0.00000000  0.00000000  0.50000000       0.003
  -0.08333333  0.08333333  0.58333333       0.014
  -0.16666667  0.16666667  0.66666667       0.014
  -0.25000000  0.25000000  0.75000000       0.014
   0.66666667 -0.66666667 -0.16666667       0.014
   0.58333333 -0.58333333 -0.08333333       0.014
   0.50000000 -0.50000000  0.00000000       0.007
   0.00000000  0.00000000  0.66666667       0.003
  -0.08333333  0.08333333  0.75000000       0.014
  -0.16666667  0.16666667  0.83333333       0.014
   0.75000000 -0.75000000 -0.08333333       0.014
   0.66666667 -0.66666667  0.00000000       0.007
   0.00000000  0.00000000  0.83333333       0.003
  -0.08333333  0.08333333  0.91666667       0.014
   0.83333333 -0.83333333  0.00000000       0.007
   0.00000000  0.00000000  1.00000000       0.002
   0.00000000  0.16666667  0.33333333       0.014
  -0.08333333  0.25000000  0.41666667       0.028
  -0.16666667  0.33333333  0.50000000       0.028
  -0.25000000  0.41666667  0.58333333       0.028
   0.66666667 -0.50000000 -0.33333333       0.014
   0.00000000  0.16666667  0.50000000       0.014
  -0.08333333  0.25000000  0.58333333       0.028
  -0.16666667  0.33333333  0.66666667       0.028
   0.75000000 -0.58333333 -0.25000000       0.028
   0.66666667 -0.50000000 -0.16666667       0.028
   0.58333333 -0.41666667 -0.08333333       0.028
   0.50000000 -0.33333333  0.00000000       0.014
  -0.00000000  0.16666667  0.66666667       0.014
  -0.08333333  0.25000000  0.75000000       0.028
   0.83333333 -0.66666667 -0.16666667       0.028
   0.75000000 -0.58333333 -0.08333333       0.028
   0.66666667 -0.50000000  0.00000000       0.014
   0.00000000  0.16666667  0.83333333       0.014
   0.91666667 -0.75000000 -0.08333333       0.028
   0.83333333 -0.66666667  0.00000000       0.014
   1.00000000 -0.83333333  0.00000000       0.007
   0.00000000  0.33333333  0.66666667       0.014
   0.91666667 -0.58333333 -0.25000000       0.028
   0.83333333 -0.50000000 -0.16666667       0.014
   1.00000000 -0.66666667 -0.16666667       0.014
   0.91666667 -0.58333333 -0.08333333       0.028
   0.83333333 -0.50000000  0.00000000       0.014
   1.00000000 -0.66666667  0.00000000       0.007
   1.00000000 -0.50000000  0.00000000       0.003
 
 k-points in reciprocal lattice and weights: Gamma centered Monkhorst-Pack           
   0.00000000  0.00000000  0.00000000       0.001
   0.08333333  0.00000000  0.00000000       0.005
   0.16666667  0.00000000  0.00000000       0.005
   0.25000000  0.00000000  0.00000000       0.005
   0.33333333  0.00000000  0.00000000       0.005
   0.41666667  0.00000000  0.00000000       0.005
   0.50000000  0.00000000  0.00000000       0.002
   0.08333333  0.08333333  0.00000000       0.003
   0.16666667  0.08333333  0.00000000       0.014
   0.25000000  0.08333333  0.00000000       0.014
   0.33333333  0.08333333  0.00000000       0.014
   0.41666667  0.08333333  0.00000000       0.014
   0.50000000  0.08333333  0.00000000       0.014
  -0.41666667  0.08333333  0.00000000       0.014
  -0.33333333  0.08333333  0.00000000       0.014
  -0.25000000  0.08333333  0.00000000       0.014
  -0.16666667  0.08333333  0.00000000       0.014
  -0.08333333  0.08333333  0.00000000       0.007
   0.16666667  0.16666667  0.00000000       0.003
   0.25000000  0.16666667  0.00000000       0.014
   0.33333333  0.16666667  0.00000000       0.014
   0.41666667  0.16666667  0.00000000       0.014
   0.50000000  0.16666667  0.00000000       0.014
  -0.41666667  0.16666667  0.00000000       0.014
  -0.33333333  0.16666667  0.00000000       0.014
  -0.25000000  0.16666667  0.00000000       0.014
  -0.16666667  0.16666667  0.00000000       0.007
   0.25000000  0.25000000  0.00000000       0.003
   0.33333333  0.25000000  0.00000000       0.014
   0.41666667  0.25000000  0.00000000       0.014
   0.50000000  0.25000000  0.00000000       0.014
  -0.41666667  0.25000000  0.00000000       0.014
  -0.33333333  0.25000000  0.00000000       0.014
  -0.25000000  0.25000000  0.00000000       0.007
   0.33333333  0.33333333  0.00000000       0.003
   0.41666667  0.33333333  0.00000000       0.014
   0.50000000  0.33333333  0.00000000       0.014
  -0.41666667  0.33333333  0.00000000       0.014
  -0.33333333  0.33333333  0.00000000       0.007
   0.41666667  0.41666667  0.00000000       0.003
   0.50000000  0.41666667  0.00000000       0.014
  -0.41666667  0.41666667  0.00000000       0.007
   0.50000000  0.50000000  0.00000000       0.002
   0.25000000  0.16666667  0.08333333       0.014
   0.33333333  0.16666667  0.08333333       0.028
   0.41666667  0.16666667  0.08333333       0.028
   0.50000000  0.16666667  0.08333333       0.028
  -0.41666667  0.16666667  0.08333333       0.014
   0.33333333  0.25000000  0.08333333       0.014
   0.41666667  0.25000000  0.08333333       0.028
   0.50000000  0.25000000  0.08333333       0.028
  -0.41666667  0.25000000  0.08333333       0.028
  -0.33333333  0.25000000  0.08333333       0.028
  -0.25000000  0.25000000  0.08333333       0.028
  -0.16666667  0.25000000  0.08333333       0.014
   0.41666667  0.33333333  0.08333333       0.014
   0.50000000  0.33333333  0.08333333       0.028
  -0.41666667  0.33333333  0.08333333       0.028
  -0.33333333  0.33333333  0.08333333       0.028
  -0.25000000  0.33333333  0.08333333       0.014
   0.50000000  0.41666667  0.08333333       0.014
  -0.41666667  0.41666667  0.08333333       0.028
  -0.33333333  0.41666667  0.08333333       0.014
  -0.41666667  0.50000000  0.08333333       0.007
   0.50000000  0.33333333  0.16666667       0.014
  -0.41666667  0.33333333  0.16666667       0.028
  -0.33333333  0.33333333  0.16666667       0.014
  -0.41666667  0.41666667  0.16666667       0.014
  -0.33333333  0.41666667  0.16666667       0.028
  -0.25000000  0.41666667  0.16666667       0.014
  -0.33333333  0.50000000  0.16666667       0.007
  -0.25000000  0.50000000  0.25000000       0.003
 
 position of ions in fractional coordinates (direct lattice) 
   0.00000000  0.00000000  0.00000000
   0.25000000  0.25000000  0.25000000
 
 position of ions in cartesian coordinates  (Angst):
   0.00000000  0.00000000  0.00000000
   1.90525589  1.90525589  1.90525589
 


--------------------------------------------------------------------------------------------------------


 k-point  1 :   0.0000 0.0000 0.0000  plane waves:    3695
 k-point  2 :   0.0833 0.0000 0.0000  plane waves:    3701
 k-point  3 :   0.1667 0.0000 0.0000  plane waves:    3698
 k-point  4 :   0.2500 0.0000 0.0000  plane waves:    3693
 k-point  5 :   0.3333 0.0000 0.0000  plane waves:    3675
 k-point  6 :   0.4167 0.0000 0.0000  plane waves:    3711
 k-point  7 :   0.5000 0.0000 0.0000  plane waves:    3708
 k-point  8 :   0.0833 0.0833 0.0000  plane waves:    3711
 k-point  9 :   0.1667 0.0833 0.0000  plane waves:    3689
 k-point 10 :   0.2500 0.0833 0.0000  plane waves:    3689
 k-point 11 :   0.3333 0.0833 0.0000  plane waves:    3696
 k-point 12 :   0.4167 0.0833 0.0000  plane waves:    3702
 k-point 13 :   0.5000 0.0833 0.0000  plane waves:    3693
 k-point 14 :  -0.4167 0.0833 0.0000  plane waves:    3703
 k-point 15 :  -0.3333 0.0833 0.0000  plane waves:    3695
 k-point 16 :  -0.2500 0.0833 0.0000  plane waves:    3697
 k-point 17 :  -0.1667 0.0833 0.0000  plane waves:    3692
 k-point 18 :  -0.0833 0.0833 0.0000  plane waves:    3699
 k-point 19 :   0.1667 0.1667 0.0000  plane waves:    3667
 k-point 20 :   0.2500 0.1667 0.0000  plane waves:    3680
 k-point 21 :   0.3333 0.1667 0.0000  plane waves:    3700
 k-point 22 :   0.4167 0.1667 0.0000  plane waves:    3697
 k-point 23 :   0.5000 0.1667 0.0000  plane waves:    3704
 k-point 24 :  -0.4167 0.1667 0.0000  plane waves:    3689
 k-point 25 :  -0.3333 0.1667 0.0000  plane waves:    3690
 k-point 26 :  -0.2500 0.1667 0.0000  plane waves:    3696
 k-point 27 :  -0.1667 0.1667 0.0000  plane waves:    3703
 k-point 28 :   0.2500 0.2500 0.0000  plane waves:    3655
 k-point 29 :   0.3333 0.2500 0.0000  plane waves:    3671
 k-point 30 :   0.4167 0.2500 0.0000  plane waves:    3687
 k-point 31 :   0.5000 0.2500 0.0000  plane waves:    3685
 k-point 32 :  -0.4167 0.2500 0.0000  plane waves:    3694
 k-point 33 :  -0.3333 0.2500 0.0000  plane waves:    3697
 k-point 34 :  -0.2500 0.2500 0.0000  plane waves:    3709
 k-point 35 :   0.3333 0.3333 0.0000  plane waves:    3691
 k-point 36 :   0.4167 0.3333 0.0000  plane waves:    3688
 k-point 37 :   0.5000 0.3333 0.0000  plane waves:    3692
 k-point 38 :  -0.4167 0.3333 0.0000  plane waves:    3690
 k-point 39 :  -0.3333 0.3333 0.0000  plane waves:    3717
 k-point 40 :   0.4167 0.4167 0.0000  plane waves:    3688
 k-point 41 :   0.5000 0.4167 0.0000  plane waves:    3690
 k-point 42 :  -0.4167 0.4167 0.0000  plane waves:    3692
 k-point 43 :   0.5000 0.5000 0.0000  plane waves:    3692
 k-point 44 :   0.2500 0.1667 0.0833  plane waves:    3687
 k-point 45 :   0.3333 0.1667 0.0833  plane waves:    3689
 k-point 46 :   0.4167 0.1667 0.0833  plane waves:    3693
 k-point 47 :   0.5000 0.1667 0.0833  plane waves:    3696
 k-point 48 :  -0.4167 0.1667 0.0833  plane waves:    3694
 k-point 49 :   0.3333 0.2500 0.0833  plane waves:    3677
 k-point 50 :   0.4167 0.2500 0.0833  plane waves:    3687
 k-point 51 :   0.5000 0.2500 0.0833  plane waves:    3684
 k-point 52 :  -0.4167 0.2500 0.0833  plane waves:    3687
 k-point 53 :  -0.3333 0.2500 0.0833  plane waves:    3684
 k-point 54 :  -0.2500 0.2500 0.0833  plane waves:    3692
 k-point 55 :  -0.1667 0.2500 0.0833  plane waves:    3681
 k-point 56 :   0.4167 0.3333 0.0833  plane waves:    3682
 k-point 57 :   0.5000 0.3333 0.0833  plane waves:    3696
 k-point 58 :  -0.4167 0.3333 0.0833  plane waves:    3692
 k-point 59 :  -0.3333 0.3333 0.0833  plane waves:    3696
 k-point 60 :  -0.2500 0.3333 0.0833  plane waves:    3702
 k-point 61 :   0.5000 0.4167 0.0833  plane waves:    3695
 k-point 62 :  -0.4167 0.4167 0.0833  plane waves:    3696
 k-point 63 :  -0.3333 0.4167 0.0833  plane waves:    3692
 k-point 64 :  -0.4167 0.5000 0.0833  plane waves:    3692
 k-point 65 :   0.5000 0.3333 0.1667  plane waves:    3694
 k-point 66 :  -0.4167 0.3333 0.1667  plane waves:    3694
 k-point 67 :  -0.3333 0.3333 0.1667  plane waves:    3698
 k-point 68 :  -0.4167 0.4167 0.1667  plane waves:    3707
 k-point 69 :  -0.3333 0.4167 0.1667  plane waves:    3701
 k-point 70 :  -0.2500 0.4167 0.1667  plane waves:    3706
 k-point 71 :  -0.3333 0.5000 0.1667  plane waves:    3680
 k-point 72 :  -0.2500 0.5000 0.2500  plane waves:    3704

 maximum and minimum number of plane-waves per node :      3717     3655

 maximum number of plane-waves:      3717
 maximum index in each direction: 
   IXMAX=   11   IYMAX=   10   IZMAX=   10
   IXMIN=  -11   IYMIN=  -11   IZMIN=  -11

 WARNING: aliasing errors must be expected set NGX to  46 to avoid them
 WARNING: aliasing errors must be expected set NGY to  44 to avoid them
 WARNING: aliasing errors must be expected set NGZ to  44 to avoid them
 aliasing errors are usually negligible using standard VASP settings
 and one can safely disregard these warnings

 serial   3D FFT for wavefunctions
 parallel 3D FFT for charge:
    minimum data exchange during FFTs selected (reduces bandwidth)


 total amount of memory used by VASP on root node    62812. kBytes
========================================================================

   base      :      30000. kBytes
   nonl-proj :      17260. kBytes
   fftplans  :       2401. kBytes
   grid      :       4538. kBytes
   one-center:          6. kBytes
   wavefun   :       8607. kBytes
 
     INWAV:  cpu time    0.00: real time    0.00
 Broyden mixing: mesh for mixing (old mesh)
   NGX = 21   NGY = 21   NGZ = 21
  (NGX  = 64   NGY  = 64   NGZ  = 64)
  gives a total of   9261 points

 initial charge density was supplied:
 charge density of overlapping atoms calculated
 number of electron       8.0000000 magnetization 
 keeping initial charge density in first step


--------------------------------------------------------------------------------------------------------


 Maximum index for augmentation-charges         2421 (set IRDMAX)


--------------------------------------------------------------------------------------------------------


 First call to EWALD:  gamma=   0.369
 Maximum number of real-space cells 3x 3x 3
 Maximum number of reciprocal cells 3x 3x 3

 FEWALD executed in parallel
    FEWALD:  cpu time    0.00: real time    0.00


----------------------------------------- Iteration    1(   1)  ---------------------------------------


    POTLOK:  cpu time    0.05: real time    0.05
    SETDIJ:  cpu time    0.00: real time    0.00
     EDDAV:  cpu time    0.70: real time    0.70
       DOS:  cpu time    0.00: real time    0.00
    --------------------------------------------
      LOOP:  cpu time    0.75: real time    0.76

 eigenvalue-minimisations  :  1152
 total energy-change (2. order) : 0.1097556E+02  (-0.2662074E+03)
 number of electron       8.0000000 magnetization 
 augmentation part        8.0000000 magnetization 

 Free energy of the ion-electron system (eV)
  ---------------------------------------------------
  alpha Z        PSCENC =         1.21684118
  Ewald energy   TEWEN  =      -162.85213288
  -Hartree energ DENC   =       -30.95849921
  -exchange      EXHF   =         0.00000000
  -V(xc)+E(xc)   XCENC  =       -21.33834033
  PAW double counting   =        65.95520812      -30.76852678
  entropy T*S    EENTRO =        -0.00177636
  eigenvalues    EBANDS =       -16.41033231
  atomic energy  EATOM  =       206.13311910
  ---------------------------------------------------
  free energy    TOTEN  =        10.97556053 eV

  energy without entropy =       10.97733689  energy(sigma->0) =       10.97644871


--------------------------------------------------------------------------------------------------------




----------------------------------------- Iteration    1(   2)  ---------------------------------------


     EDDAV:  cpu time    1.12: real time    1.13
       DOS:  cpu time    0.00: real time    0.00
    --------------------------------------------
      LOOP:  cpu time    1.13: real time    1.13

 eigenvalue-minimisations  :  1992
 total energy-change (2. order) :-0.1652341E+02  (-0.1624687E+02)
 number of electron       8.0000000 magnetization 
 augmentation part        8.0000000 magnetization 

 Free energy of the ion-electron system (eV)
  ---------------------------------------------------
  alpha Z        PSCENC =         1.21684118
  Ewald energy   TEWEN  =      -162.85213288
  -Hartree energ DENC   =       -30.95849921
  -exchange      EXHF   =         0.00000000
  -V(xc)+E(xc)   XCENC  =       -21.33834033
  PAW double counting   =        65.95520812      -30.76852678
  entropy T*S    EENTRO =        -0.00310595
  eigenvalues    EBANDS =       -32.93240864
  atomic energy  EATOM  =       206.13311910
  ---------------------------------------------------
  free energy    TOTEN  =        -5.54784538 eV

  energy without entropy =       -5.54473944  energy(sigma->0) =       -5.54629241


--------------------------------------------------------------------------------------------------------




----------------------------------------- Iteration    1(   3)  ---------------------------------------


     EDDAV:  cpu time    0.80: real time    0.81
       DOS:  cpu time    0.00: real time    0.00
    --------------------------------------------
      LOOP:  cpu time    0.80: real time    0.81

 eigenvalue-minimisations  :  1328
 total energy-change (2. order) :-0.5392597E+00  (-0.5357148E+00)
 number of electron       8.0000000 magnetization 
 augmentation part        8.0000000 magnetization 

 Free energy of the ion-electron system (eV)
  ---------------------------------------------------
  alpha Z        PSCENC =         1.21684118
  Ewald energy   TEWEN  =      -162.85213288
  -Hartree energ DENC   =       -30.95849921
  -exchange      EXHF   =         0.00000000
  -V(xc)+E(xc)   XCENC  =       -21.33834033
  PAW double counting   =        65.95520812      -30.76852678
  entropy T*S    EENTRO =        -0.00230322
  eigenvalues    EBANDS =       -33.47247101
  atomic energy  EATOM  =       206.13311910
  ---------------------------------------------------
  free energy    TOTEN  =        -6.08710504 eV

  energy without entropy =       -6.08480181  energy(sigma->0) =       -6.08595342


--------------------------------------------------------------------------------------------------------




----------------------------------------- Iteration    1(   4)  ---------------------------------------


     EDDAV:  cpu time    0.87: real time    0.93
       DOS:  cpu time    0.00: real time    0.00
    --------------------------------------------
      LOOP:  cpu time    0.87: real time    0.93

 eigenvalue-minimisations  :  1592
 total energy-change (2. order) :-0.5783239E-02  (-0.5780600E-02)
 number of electron       8.0000000 magnetization 
 augmentation part        8.0000000 magnetization 

 Free energy of the ion-electron system (eV)
  ---------------------------------------------------
  alpha Z        PSCENC =         1.21684118
  Ewald energy   TEWEN  =      -162.85213288
  -Hartree energ DENC   =       -30.95849921
  -exchange      EXHF   =         0.00000000
  -V(xc)+E(xc)   XCENC  =       -21.33834033
  PAW double counting   =        65.95520812      -30.76852678
  entropy T*S    EENTRO =        -0.00232184
  eigenvalues    EBANDS =       -33.47823563
  atomic energy  EATOM  =       206.13311910
  ---------------------------------------------------
  free energy    TOTEN  =        -6.09288827 eV

  energy without entropy =       -6.09056643  energy(sigma->0) =       -6.09172735


--------------------------------------------------------------------------------------------------------




----------------------------------------- Iteration    1(   5)  ---------------------------------------


     EDDAV:  cpu time    0.78: real time    0.85
       DOS:  cpu time    0.00: real time    0.00
    CHARGE:  cpu time    0.05: real time    0.05
    MIXING:  cpu time    0.00: real time    0.00
    --------------------------------------------
      LOOP:  cpu time    0.83: real time    0.90

 eigenvalue-minimisations  :  1392
 total energy-change (2. order) :-0.2946057E-04  (-0.2945657E-04)
 number of electron       7.9999999 magnetization 
 augmentation part       -0.5134899 magnetization 

 Broyden mixing:
  rms(total) = 0.11740E+00    rms(broyden)= 0.11740E+00
  rms(prec ) = 0.28240E+00
  weight for this iteration     100.00

 Free energy of the ion-electron system (eV)
  ---------------------------------------------------
  alpha Z        PSCENC =         1.21684118
  Ewald energy   TEWEN  =      -162.85213288
  -Hartree energ DENC   =       -30.95849921
  -exchange      EXHF   =         0.00000000
  -V(xc)+E(xc)   XCENC  =       -21.33834033
  PAW double counting   =        65.95520812      -30.76852678
  entropy T*S    EENTRO =        -0.00232201
  eigenvalues    EBANDS =       -33.47826492
  atomic energy  EATOM  =       206.13311910
  ---------------------------------------------------
  free energy    TOTEN  =        -6.09291773 eV

  energy without entropy =       -6.09059572  energy(sigma->0) =       -6.09175673


--------------------------------------------------------------------------------------------------------




----------------------------------------- Iteration    1(   6)  ---------------------------------------


    POTLOK:  cpu time    0.03: real time    0.05
    SETDIJ:  cpu time    0.00: real time    0.00
     EDDAV:  cpu time    0.76: real time    0.76
       DOS:  cpu time    0.00: real time    0.00
    CHARGE:  cpu time    0.04: real time    0.05
    MIXING:  cpu time    0.00: real time    0.00
    --------------------------------------------
      LOOP:  cpu time    0.84: real time    0.86

 eigenvalue-minimisations  :  1248
 total energy-change (2. order) :-0.5349236E-02  (-0.1022110E-02)
 number of electron       7.9999999 magnetization 
 augmentation part       -0.5172435 magnetization 

 Broyden mixing:
  rms(total) = 0.74764E-01    rms(broyden)= 0.74764E-01
  rms(prec ) = 0.18079E+00
  weight for this iteration     100.00

 eigenvalues of (default mixing * dielectric matrix)
  average eigenvalue GAMMA=   2.7097
  2.7097

 Free energy of the ion-electron system (eV)
  ---------------------------------------------------
  alpha Z        PSCENC =         1.21684118
  Ewald energy   TEWEN  =      -162.85213288
  -Hartree energ DENC   =       -30.68228308
  -exchange      EXHF   =         0.00000000
  -V(xc)+E(xc)   XCENC  =       -21.37086856
  PAW double counting   =        64.74542132      -29.51439981
  entropy T*S    EENTRO =        -0.00224853
  eigenvalues    EBANDS =       -33.77171572
  atomic energy  EATOM  =       206.13311910
  ---------------------------------------------------
  free energy    TOTEN  =        -6.09826697 eV

  energy without entropy =       -6.09601844  energy(sigma->0) =       -6.09714270


--------------------------------------------------------------------------------------------------------




----------------------------------------- Iteration    1(   7)  ---------------------------------------


    POTLOK:  cpu time    0.06: real time    0.06
    SETDIJ:  cpu time    0.00: real time    0.00
     EDDAV:  cpu time    0.80: real time    0.80
       DOS:  cpu time    0.00: real time    0.00
    CHARGE:  cpu time    0.04: real time    0.05
    MIXING:  cpu time    0.00: real time    0.00
    --------------------------------------------
      LOOP:  cpu time    0.90: real time    0.91

 eigenvalue-minimisations  :  1360
 total energy-change (2. order) :-0.4495015E-02  (-0.2321668E-02)
 number of electron       7.9999999 magnetization 
 augmentation part       -0.5236734 magnetization 

 Broyden mixing:
  rms(total) = 0.75648E-02    rms(broyden)= 0.75647E-02
  rms(prec ) = 0.24862E-01
  weight for this iteration     100.00

 eigenvalues of (default mixing * dielectric matrix)
  average eigenvalue GAMMA=   2.4558
  2.4558  2.4558

 Free energy of the ion-electron system (eV)
  ---------------------------------------------------
  alpha Z        PSCENC =         1.21684118
  Ewald energy   TEWEN  =      -162.85213288
  -Hartree energ DENC   =       -30.46636512
  -exchange      EXHF   =         0.00000000
  -V(xc)+E(xc)   XCENC  =       -21.39477189
  PAW double counting   =        63.04299788      -27.75069092
  entropy T*S    EENTRO =        -0.00219383
  eigenvalues    EBANDS =       -34.02956551
  atomic energy  EATOM  =       206.13311910
  ---------------------------------------------------
  free energy    TOTEN  =        -6.10276199 eV

  energy without entropy =       -6.10056815  energy(sigma->0) =       -6.10166507


--------------------------------------------------------------------------------------------------------




----------------------------------------- Iteration    1(   8)  ---------------------------------------


    POTLOK:  cpu time    0.06: real time    0.06
    SETDIJ:  cpu time    0.00: real time    0.00
     EDDAV:  cpu time    0.71: real time    0.71
       DOS:  cpu time    0.00: real time    0.00
    CHARGE:  cpu time    0.05: real time    0.05
    MIXING:  cpu time    0.00: real time    0.00
    --------------------------------------------
      LOOP:  cpu time    0.82: real time    0.82

 eigenvalue-minimisations  :  1152
 total energy-change (2. order) :-0.7819172E-04  (-0.1937148E-03)
 number of electron       7.9999999 magnetization 
 augmentation part       -0.5223892 magnetization 

 Broyden mixing:
  rms(total) = 0.31710E-02    rms(broyden)= 0.31709E-02
  rms(prec ) = 0.85441E-02
  weight for this iteration     100.00

 eigenvalues of (default mixing * dielectric matrix)
  average eigenvalue GAMMA=   2.0883
  1.1603  3.0001  2.1046

 Free energy of the ion-electron system (eV)
  ---------------------------------------------------
  alpha Z        PSCENC =         1.21684118
  Ewald energy   TEWEN  =      -162.85213288
  -Hartree energ DENC   =       -30.71984166
  -exchange      EXHF   =         0.00000000
  -V(xc)+E(xc)   XCENC  =       -21.37261730
  PAW double counting   =        63.48298335      -28.21133989
  entropy T*S    EENTRO =        -0.00219057
  eigenvalues    EBANDS =       -33.77766152
  atomic energy  EATOM  =       206.13311910
  ---------------------------------------------------
  free energy    TOTEN  =        -6.10284018 eV

  energy without entropy =       -6.10064961  energy(sigma->0) =       -6.10174489


--------------------------------------------------------------------------------------------------------




----------------------------------------- Iteration    1(   9)  ---------------------------------------


    POTLOK:  cpu time    0.03: real time    0.05
    SETDIJ:  cpu time    0.00: real time    0.00
     EDDAV:  cpu time    0.74: real time    0.78
       DOS:  cpu time    0.00: real time    0.00
    CHARGE:  cpu time    0.04: real time    0.05
    MIXING:  cpu time    0.00: real time    0.00
    --------------------------------------------
      LOOP:  cpu time    0.82: real time    0.89

 eigenvalue-minimisations  :  1312
 total energy-change (2. order) :-0.1073535E-03  (-0.9279295E-05)
 number of electron       7.9999999 magnetization 
 augmentation part       -0.5225946 magnetization 

 Broyden mixing:
  rms(total) = 0.13595E-02    rms(broyden)= 0.13594E-02
  rms(prec ) = 0.32110E-02
  weight for this iteration     100.00

 eigenvalues of (default mixing * dielectric matrix)
  average eigenvalue GAMMA=   2.3739
  0.9931  3.2498  3.0070  2.2457

 Free energy of the ion-electron system (eV)
  ---------------------------------------------------
  alpha Z        PSCENC =         1.21684118
  Ewald energy   TEWEN  =      -162.85213288
  -Hartree energ DENC   =       -30.74422447
  -exchange      EXHF   =         0.00000000
  -V(xc)+E(xc)   XCENC  =       -21.37042248
  PAW double counting   =        63.38421970      -28.10965868
  entropy T*S    EENTRO =        -0.00218653
  eigenvalues    EBANDS =       -33.75850249
  atomic energy  EATOM  =       206.13311910
  ---------------------------------------------------
  free energy    TOTEN  =        -6.10294753 eV

  energy without entropy =       -6.10076100  energy(sigma->0) =       -6.10185427


--------------------------------------------------------------------------------------------------------




----------------------------------------- Iteration    1(  10)  ---------------------------------------


    POTLOK:  cpu time    0.03: real time    0.06
    SETDIJ:  cpu time    0.00: real time    0.00
     EDDAV:  cpu time    0.73: real time    0.74
       DOS:  cpu time    0.00: real time    0.00
    CHARGE:  cpu time    0.05: real time    0.05
    MIXING:  cpu time    0.00: real time    0.00
    --------------------------------------------
      LOOP:  cpu time    0.81: real time    0.85

 eigenvalue-minimisations  :  1240
 total energy-change (2. order) :-0.5212812E-04  (-0.8358789E-05)
 number of electron       7.9999999 magnetization 
 augmentation part       -0.5225324 magnetization 

 Broyden mixing:
  rms(total) = 0.23428E-03    rms(broyden)= 0.23428E-03
  rms(prec ) = 0.52677E-03
  weight for this iteration     100.00

 eigenvalues of (default mixing * dielectric matrix)
  average eigenvalue GAMMA=   2.1660
  3.6582  2.6686  2.2748  1.0420  1.1861

 Free energy of the ion-electron system (eV)
  ---------------------------------------------------
  alpha Z        PSCENC =         1.21684118
  Ewald energy   TEWEN  =      -162.85213288
  -Hartree energ DENC   =       -30.75908213
  -exchange      EXHF   =         0.00000000
  -V(xc)+E(xc)   XCENC  =       -21.36891329
  PAW double counting   =        63.32034589      -28.04358784
  entropy T*S    EENTRO =        -0.00218188
  eigenvalues    EBANDS =       -33.74740782
  atomic energy  EATOM  =       206.13311910
  ---------------------------------------------------
  free energy    TOTEN  =        -6.10299966 eV

  energy without entropy =       -6.10081778  energy(sigma->0) =       -6.10190872


--------------------------------------------------------------------------------------------------------




----------------------------------------- Iteration    1(  11)  ---------------------------------------


    POTLOK:  cpu time    0.03: real time    0.05
    SETDIJ:  cpu time    0.00: real time    0.00
     EDDAV:  cpu time    0.87: real time    0.91
       DOS:  cpu time    0.00: real time    0.00
    CHARGE:  cpu time    0.04: real time    0.05
    MIXING:  cpu time    0.00: real time    0.00
    --------------------------------------------
      LOOP:  cpu time    0.95: real time    1.03

 eigenvalue-minimisations  :  1616
 total energy-change (2. order) :-0.8220465E-06  (-0.7427190E-07)
 number of electron       7.9999999 magnetization 
 augmentation part       -0.5225446 magnetization 

 Broyden mixing:
  rms(total) = 0.10515E-03    rms(broyden)= 0.10515E-03
  rms(prec ) = 0.22916E-03
  weight for this iteration     100.00

 eigenvalues of (default mixing * dielectric matrix)
  average eigenvalue GAMMA=   2.2768
  3.8560  3.0465  2.4779  2.2946  0.9929  0.9929

 Free energy of the ion-electron system (eV)
  ---------------------------------------------------
  alpha Z        PSCENC =         1.21684118
  Ewald energy   TEWEN  =      -162.85213288
  -Hartree energ DENC   =       -30.76159152
  -exchange      EXHF   =         0.00000000
  -V(xc)+E(xc)   XCENC  =       -21.36856835
  PAW double counting   =        63.32514054      -28.04856478
  entropy T*S    EENTRO =        -0.00218178
  eigenvalues    EBANDS =       -33.74506200
  atomic energy  EATOM  =       206.13311910
  ---------------------------------------------------
  free energy    TOTEN  =        -6.10300048 eV

  energy without entropy =       -6.10081870  energy(sigma->0) =       -6.10190959


--------------------------------------------------------------------------------------------------------




----------------------------------------- Iteration    1(  12)  ---------------------------------------


    POTLOK:  cpu time    0.03: real time    0.08
    SETDIJ:  cpu time    0.00: real time    0.00
     EDDAV:  cpu time    0.68: real time    0.71
       DOS:  cpu time    0.00: real time    0.00
    CHARGE:  cpu time    0.04: real time    0.05
    MIXING:  cpu time    0.00: real time    0.00
    --------------------------------------------
      LOOP:  cpu time    0.76: real time    0.83

 eigenvalue-minimisations  :  1152
 total energy-change (2. order) :-0.7950966E-06  (-0.6578841E-07)
 number of electron       7.9999999 magnetization 
 augmentation part       -0.5225365 magnetization 

 Broyden mixing:
  rms(total) = 0.20160E-04    rms(broyden)= 0.20160E-04
  rms(prec ) = 0.46128E-04
  weight for this iteration     100.00

 eigenvalues of (default mixing * dielectric matrix)
  average eigenvalue GAMMA=   2.1742
  3.8951  3.0187  2.7500  2.1608  1.0068  0.9795  1.4086

 Free energy of the ion-electron system (eV)
  ---------------------------------------------------
  alpha Z        PSCENC =         1.21684118
  Ewald energy   TEWEN  =      -162.85213288
  -Hartree energ DENC   =       -30.76213585
  -exchange      EXHF   =         0.00000000
  -V(xc)+E(xc)   XCENC  =       -21.36837623
  PAW double counting   =        63.33290324      -28.05655642
  entropy T*S    EENTRO =        -0.00218173
  eigenvalues    EBANDS =       -33.74448169
  atomic energy  EATOM  =       206.13311910
  ---------------------------------------------------
  free energy    TOTEN  =        -6.10300128 eV

  energy without entropy =       -6.10081954  energy(sigma->0) =       -6.10191041


--------------------------------------------------------------------------------------------------------




----------------------------------------- Iteration    1(  13)  ---------------------------------------


    POTLOK:  cpu time    0.03: real time    0.06
    SETDIJ:  cpu time    0.00: real time    0.00
     EDDAV:  cpu time    0.87: real time    0.91
       DOS:  cpu time    0.00: real time    0.00
    CHARGE:  cpu time    0.04: real time    0.05
    MIXING:  cpu time    0.00: real time    0.00
    --------------------------------------------
      LOOP:  cpu time    0.95: real time    1.02

 eigenvalue-minimisations  :  1608
 total energy-change (2. order) : 0.6340966E-07  (-0.9860222E-09)
 number of electron       7.9999999 magnetization 
 augmentation part       -0.5225392 magnetization 

 Broyden mixing:
  rms(total) = 0.38466E-05    rms(broyden)= 0.38466E-05
  rms(prec ) = 0.98240E-05
  weight for this iteration     100.00

 eigenvalues of (default mixing * dielectric matrix)
  average eigenvalue GAMMA=   2.2090
  3.9574  3.0359  3.0359  2.4105  2.2439  1.0170  1.0170  0.9544

 Free energy of the ion-electron system (eV)
  ---------------------------------------------------
  alpha Z        PSCENC =         1.21684118
  Ewald energy   TEWEN  =      -162.85213288
  -Hartree energ DENC   =       -30.76186431
  -exchange      EXHF   =         0.00000000
  -V(xc)+E(xc)   XCENC  =       -21.36839791
  PAW double counting   =        63.33175535      -28.05536546
  entropy T*S    EENTRO =        -0.00218172
  eigenvalues    EBANDS =       -33.74477457
  atomic energy  EATOM  =       206.13311910
  ---------------------------------------------------
  free energy    TOTEN  =        -6.10300121 eV

  energy without entropy =       -6.10081949  energy(sigma->0) =       -6.10191035


--------------------------------------------------------------------------------------------------------




----------------------------------------- Iteration    1(  14)  ---------------------------------------


    POTLOK:  cpu time    0.03: real time    0.06
    SETDIJ:  cpu time    0.00: real time    0.00
     EDDAV:  cpu time    0.67: real time    0.70
       DOS:  cpu time    0.00: real time    0.00
    CHARGE:  cpu time    0.05: real time    0.05
    MIXING:  cpu time    0.00: real time    0.00
    --------------------------------------------
      LOOP:  cpu time    0.76: real time    0.83

 eigenvalue-minimisations  :  1152
 total energy-change (2. order) : 0.1452844E-07  (-0.1318106E-09)
 number of electron       7.9999999 magnetization 
 augmentation part       -0.5225390 magnetization 

 Broyden mixing:
  rms(total) = 0.13281E-05    rms(broyden)= 0.13281E-05
  rms(prec ) = 0.31511E-05
  weight for this iteration     100.00

 eigenvalues of (default mixing * dielectric matrix)
  average eigenvalue GAMMA=   2.0810
  3.9292  3.0909  2.7136  2.7136  2.1844  0.9377  1.0038  1.0038  1.1522

 Free energy of the ion-electron system (eV)
  ---------------------------------------------------
  alpha Z        PSCENC =         1.21684118
  Ewald energy   TEWEN  =      -162.85213288
  -Hartree energ DENC   =       -30.76195596
  -exchange      EXHF   =         0.00000000
  -V(xc)+E(xc)   XCENC  =       -21.36839492
  PAW double counting   =        63.33134767      -28.05495065
  entropy T*S    EENTRO =        -0.00218172
  eigenvalues    EBANDS =       -33.74469303
  atomic energy  EATOM  =       206.13311910
  ---------------------------------------------------
  free energy    TOTEN  =        -6.10300120 eV

  energy without entropy =       -6.10081948  energy(sigma->0) =       -6.10191034


--------------------------------------------------------------------------------------------------------




----------------------------------------- Iteration    1(  15)  ---------------------------------------


    POTLOK:  cpu time    0.03: real time    0.06
    SETDIJ:  cpu time    0.00: real time    0.00
     EDDAV:  cpu time    0.50: real time    0.52
       DOS:  cpu time    0.00: real time    0.00
    CHARGE:  cpu time    0.04: real time    0.05
    MIXING:  cpu time    0.00: real time    0.00
    --------------------------------------------
      LOOP:  cpu time    0.58: real time    0.63

 eigenvalue-minimisations  :   704
 total energy-change (2. order) : 0.8379573E-09  (-0.2352350E-11)
 number of electron       7.9999999 magnetization 
 augmentation part       -0.5225388 magnetization 

 Broyden mixing:
  rms(total) = 0.18028E-06    rms(broyden)= 0.18022E-06
  rms(prec ) = 0.35947E-06
  weight for this iteration     100.00

 eigenvalues of (default mixing * dielectric matrix)
  average eigenvalue GAMMA=   2.1174
  3.9389  3.0861  2.8007  2.8007  2.3702  2.1934  1.0224  1.0224  0.9794  0.9600

 Free energy of the ion-electron system (eV)
  ---------------------------------------------------
  alpha Z        PSCENC =         1.21684118
  Ewald energy   TEWEN  =      -162.85213288
  -Hartree energ DENC   =       -30.76196387
  -exchange      EXHF   =         0.00000000
  -V(xc)+E(xc)   XCENC  =       -21.36839523
  PAW double counting   =        63.33132219      -28.05492475
  entropy T*S    EENTRO =        -0.00218172
  eigenvalues    EBANDS =       -33.74468523
  atomic energy  EATOM  =       206.13311910
  ---------------------------------------------------
  free energy    TOTEN  =        -6.10300120 eV

  energy without entropy =       -6.10081948  energy(sigma->0) =       -6.10191034


--------------------------------------------------------------------------------------------------------




----------------------------------------- Iteration    1(  16)  ---------------------------------------


    POTLOK:  cpu time    0.05: real time    0.07
    SETDIJ:  cpu time    0.00: real time    0.00
     EDDAV:  cpu time    0.46: real time    0.46
       DOS:  cpu time    0.00: real time    0.00
    CHARGE:  cpu time    0.04: real time    0.05
    MIXING:  cpu time    0.00: real time    0.00
    --------------------------------------------
      LOOP:  cpu time    0.56: real time    0.59

 eigenvalue-minimisations  :   576
 total energy-change (2. order) :-0.3611831E-09  (-0.5543538E-12)
 number of electron       7.9999999 magnetization 
 augmentation part       -0.5225388 magnetization 

 Broyden mixing:
  rms(total) = 0.35827E-07    rms(broyden)= 0.35550E-07
  rms(prec ) = 0.57747E-07
  weight for this iteration     100.00

 eigenvalues of (default mixing * dielectric matrix)
  average eigenvalue GAMMA=   2.0360
  3.9398  3.0014  3.0014  2.6260  2.6260  2.1950  1.0544  1.0544  0.9895  0.9541
  0.9541

 Free energy of the ion-electron system (eV)
  ---------------------------------------------------
  alpha Z        PSCENC =         1.21684118
  Ewald energy   TEWEN  =      -162.85213288
  -Hartree energ DENC   =       -30.76196273
  -exchange      EXHF   =         0.00000000
  -V(xc)+E(xc)   XCENC  =       -21.36839541
  PAW double counting   =        63.33133568      -28.05493834
  entropy T*S    EENTRO =        -0.00218172
  eigenvalues    EBANDS =       -33.74468609
  atomic energy  EATOM  =       206.13311910
  ---------------------------------------------------
  free energy    TOTEN  =        -6.10300120 eV

  energy without entropy =       -6.10081948  energy(sigma->0) =       -6.10191034


--------------------------------------------------------------------------------------------------------




----------------------------------------- Iteration    1(  17)  ---------------------------------------


    POTLOK:  cpu time    0.03: real time    0.06
    SETDIJ:  cpu time    0.00: real time    0.00
     EDDAV:  cpu time    0.45: real time    0.47
       DOS:  cpu time    0.00: real time    0.00
    CHARGE:  cpu time    0.04: real time    0.05
    MIXING:  cpu time    0.00: real time    0.00
    --------------------------------------------
      LOOP:  cpu time    0.53: real time    0.57

 eigenvalue-minimisations  :   576
 total energy-change (2. order) :-0.4194760E-09  (-0.6424150E-13)
 number of electron       7.9999999 magnetization 
 augmentation part       -0.5225388 magnetization 

 Broyden mixing:
  rms(total) = 0.24484E-07    rms(broyden)= 0.24079E-07
  rms(prec ) = 0.50916E-07
  weight for this iteration     100.00

 eigenvalues of (default mixing * dielectric matrix)
  average eigenvalue GAMMA=   2.0517
  3.9328  3.0255  3.0255  2.6832  2.6832  2.1711  2.1711  1.0506  0.9980  0.9639
  0.9639  0.9516

 Free energy of the ion-electron system (eV)
  ---------------------------------------------------
  alpha Z        PSCENC =         1.21684118
  Ewald energy   TEWEN  =      -162.85213288
  -Hartree energ DENC   =       -30.76196250
  -exchange      EXHF   =         0.00000000
  -V(xc)+E(xc)   XCENC  =       -21.36839536
  PAW double counting   =        63.33134435      -28.05494719
  entropy T*S    EENTRO =        -0.00218172
  eigenvalues    EBANDS =       -33.74468618
  atomic energy  EATOM  =       206.13311910
  ---------------------------------------------------
  free energy    TOTEN  =        -6.10300120 eV

  energy without entropy =       -6.10081948  energy(sigma->0) =       -6.10191034


--------------------------------------------------------------------------------------------------------




----------------------------------------- Iteration    1(  18)  ---------------------------------------


    POTLOK:  cpu time    0.03: real time    0.06
    SETDIJ:  cpu time    0.00: real time    0.00
     EDDAV:  cpu time    0.44: real time    0.46
       DOS:  cpu time    0.00: real time    0.00
    CHARGE:  cpu time    0.05: real time    0.05
    MIXING:  cpu time    0.00: real time    0.00
    --------------------------------------------
      LOOP:  cpu time    0.52: real time    0.58

 eigenvalue-minimisations  :   576
 total energy-change (2. order) : 0.1197122E-09  (-0.1672798E-13)
 number of electron       7.9999999 magnetization 
 augmentation part       -0.5225388 magnetization 

 Broyden mixing:
  rms(total) = 0.10156E-07    rms(broyden)= 0.91363E-08
  rms(prec ) = 0.33547E-07
  weight for this iteration     100.00
  WARNING: grid for Broyden might be to small

 eigenvalues of (default mixing * dielectric matrix)
  average eigenvalue GAMMA=   2.0199
  3.9401  3.1809  2.9681  2.9681  2.1887  2.5356  2.5356  1.0723  1.0039  1.0039
  0.9719  0.9447  0.9447

 Free energy of the ion-electron system (eV)
  ---------------------------------------------------
  alpha Z        PSCENC =         1.21684118
  Ewald energy   TEWEN  =      -162.85213288
  -Hartree energ DENC   =       -30.76196202
  -exchange      EXHF   =         0.00000000
  -V(xc)+E(xc)   XCENC  =       -21.36839539
  PAW double counting   =        63.33134286      -28.05494566
  entropy T*S    EENTRO =        -0.00218172
  eigenvalues    EBANDS =       -33.74468668
  atomic energy  EATOM  =       206.13311910
  ---------------------------------------------------
  free energy    TOTEN  =        -6.10300120 eV

  energy without entropy =       -6.10081948  energy(sigma->0) =       -6.10191034


--------------------------------------------------------------------------------------------------------




----------------------------------------- Iteration    1(  19)  ---------------------------------------


    POTLOK:  cpu time    0.06: real time    0.06
    SETDIJ:  cpu time    0.00: real time    0.00
     EDDAV:  cpu time    0.46: real time    0.46
       DOS:  cpu time    0.00: real time    0.00
    --------------------------------------------
      LOOP:  cpu time    0.52: real time    0.53

 eigenvalue-minimisations  :   576
 total energy-change (2. order) :-0.3430500E-10  (-0.1253802E-12)
 number of electron       7.9999999 magnetization 
 augmentation part       -0.5225388 magnetization 

 Free energy of the ion-electron system (eV)
  ---------------------------------------------------
  alpha Z        PSCENC =         1.21684118
  Ewald energy   TEWEN  =      -162.85213288
  -Hartree energ DENC   =       -30.76196240
  -exchange      EXHF   =         0.00000000
  -V(xc)+E(xc)   XCENC  =       -21.36839534
  PAW double counting   =        63.33134285      -28.05494565
  entropy T*S    EENTRO =        -0.00218172
  eigenvalues    EBANDS =       -33.74468634
  atomic energy  EATOM  =       206.13311910
  ---------------------------------------------------
  free energy    TOTEN  =        -6.10300120 eV

  energy without entropy =       -6.10081948  energy(sigma->0) =       -6.10191034


--------------------------------------------------------------------------------------------------------




 average (electrostatic) potential at core
  the test charge radii are     0.9892
  (the norm of the test charge is              1.0000)
       1 -90.9481       2 -90.9481
 
 
 
 E-fermi :  -0.8361     XC(G=0):  -5.9109     alpha+bet : -4.3349


 k-point     1 :       0.0000    0.0000    0.0000
  band No.  band energies     occupation 
      1      -8.3445      2.00000
      2      -4.8919      2.00000
      3      -0.7284      0.02648
      4      -0.7284      0.02648
      5      -0.7284      0.02648
      6       0.9462      0.00000
      7       0.9462      0.00000
      8       0.9462      0.00000

 k-point     2 :       0.0833    0.0000    0.0000
  band No.  band energies     occupation 
      1      -8.3134      2.00000
      2      -4.9719      2.00000
      3      -0.7714      0.13965
      4      -0.7714      0.13965
      5      -0.7490      0.05938
      6       1.0012      0.00000
      7       1.0099      0.00000
      8       1.0099      0.00000

 k-point     3 :       0.1667    0.0000    0.0000
  band No.  band energies     occupation 
      1      -8.2225      2.00000
      2      -5.1891      2.00000
      3      -0.8754      1.65518
      4      -0.8754      1.65517
      5      -0.8253      0.78591
      6       1.1672      0.00000
      7       1.1672      0.00000
      8       1.1986      0.00000

 k-point     4 :       0.2500    0.0000    0.0000
  band No.  band energies     occupation 
      1      -8.0807      2.00000
      2      -5.4892      2.00000
      3      -0.9947      1.99649
      4      -0.9947      1.99649
      5      -0.9515      1.98040
      6       1.3506      0.00000
      7       1.3506      0.00000
      8       1.5531      0.00000

 k-point     5 :       0.3333    0.0000    0.0000
  band No.  band energies     occupation 
      1      -7.9078      2.00000
      2      -5.8072      2.00000
      3      -1.0966      1.99994
      4      -1.0966      1.99994
      5      -1.0827      1.99990
      6       1.5036      0.00000
      7       1.5036      0.00000
      8       1.9986      0.00000

 k-point     6 :       0.4167    0.0000    0.0000
  band No.  band energies     occupation 
      1      -7.7472      2.00000
      2      -6.0674      2.00000
      3      -1.1766      2.00000
      4      -1.1631      2.00000
      5      -1.1631      2.00000
      6       1.5979      0.00000
      7       1.5979      0.00000
      8       2.4037      0.00000

 k-point     7 :       0.5000    0.0000    0.0000
  band No.  band energies     occupation 
      1      -7.6761      2.00000
      2      -6.1737      2.00000
      3      -1.2101      2.00000
      4      -1.1861      2.00000
      5      -1.1861      2.00000
      6       1.6288      0.00000
      7       1.6288      0.00000
      8       2.5779      0.00000

 k-point     8 :       0.0833    0.0833    0.0000
  band No.  band energies     occupation 
      1      -8.3028      2.00000
      2      -4.9979      2.00000
      3      -0.8400      1.07715
      4      -0.8400      1.07714
      5      -0.6311      0.00055
      6       0.8568      0.00000
      7       1.1049      0.00000
      8       1.1049      0.00000

 k-point     9 :       0.1667    0.0833    0.0000
  band No.  band energies     occupation 
      1      -8.2314      2.00000
      2      -5.1675      2.00000
      3      -0.9698      1.99053
      4      -0.9568      1.98408
      5      -0.5779      0.00007
      6       0.8553      0.00000
      7       1.2829      0.00000
      8       1.3007      0.00000

 k-point    10 :       0.2500    0.0833    0.0000
  band No.  band energies     occupation 
      1      -8.1051      2.00000
      2      -5.4375      2.00000
      3      -1.1468      1.99999
      4      -1.0770      1.99987
      5      -0.5985      0.00015
      6       1.0079      0.00000
      7       1.4764      0.00000
      8       1.5848      0.00000

 k-point    11 :       0.3333    0.0833    0.0000
  band No.  band energies     occupation 
      1      -7.9392      2.00000
      2      -5.7486      2.00000
      3      -1.3260      2.00000
      4      -1.1714      2.00000
      5      -0.6652      0.00214
      6       1.2366      0.00000
      7       1.6289      0.00000
      8       1.9334      0.00000

 k-point    12 :       0.4167    0.0833    0.0000
  band No.  band energies     occupation 
      1      -7.7667      2.00000
      2      -6.0321      2.00000
      3      -1.4659      2.00000
      4      -1.2247      2.00000
      5      -0.7367      0.03681
      6       1.4363      0.00000
      7       1.7103      0.00000
      8       2.2957      0.00000

 k-point    13 :       0.5000    0.0833    0.0000
  band No.  band energies     occupation 
      1      -7.6552      2.00000
      2      -6.1983      2.00000
      3      -1.5433      2.00000
      4      -1.2310      2.00000
      5      -0.7844      0.22443
      6       1.5587      0.00000
      7       1.7173      0.00000
      8       2.5322      0.00000

 k-point    14 :      -0.4167    0.0833    0.0000
  band No.  band energies     occupation 
      1      -7.6805      2.00000
      2      -6.1616      2.00000
      3      -1.5486      2.00000
      4      -1.1902      2.00000
      5      -0.7953      0.32637
      6       1.5988      0.00000
      7       1.6574      0.00000
      8       2.4762      0.00000

 k-point    15 :      -0.3333    0.0833    0.0000
  band No.  band energies     occupation 
      1      -7.8226      2.00000
      2      -5.9441      2.00000
      3      -1.4810      2.00000
      4      -1.1078      1.99996
      5      -0.7696      0.13049
      6       1.5371      0.00000
      7       1.5444      0.00000
      8       2.1721      0.00000

 k-point    16 :      -0.2500    0.0833    0.0000
  band No.  band energies     occupation 
      1      -7.9984      2.00000
      2      -5.6428      2.00000
      3      -1.3474      2.00000
      4      -0.9955      1.99659
      5      -0.7228      0.02122
      6       1.3679      0.00000
      7       1.3733      0.00000
      8       1.8230      0.00000

 k-point    17 :      -0.1667    0.0833    0.0000
  band No.  band energies     occupation 
      1      -8.1533      2.00000
      2      -5.3388      2.00000
      3      -1.1632      2.00000
      4      -0.8760      1.66222
      5      -0.6880      0.00533
      6       1.1463      0.00000
      7       1.1831      0.00000
      8       1.5246      0.00000

 k-point    18 :      -0.0833    0.0833    0.0000
  band No.  band energies     occupation 
      1      -8.2621      2.00000
      2      -5.0967      2.00000
      3      -0.9554      1.98316
      4      -0.7869      0.24514
      5      -0.7003      0.00868
      6       1.0080      0.00000
      7       1.0423      0.00000
      8       1.2486      0.00000

 k-point    19 :       0.1667    0.1667    0.0000
  band No.  band energies     occupation 
      1      -8.1792      2.00000
      2      -5.2808      2.00000
      3      -1.0808      1.99989
      4      -1.0808      1.99989
      5      -0.3895      0.00000
      6       0.6540      0.00000
      7       1.4821      0.00000
      8       1.4821      0.00000

 k-point    20 :       0.2500    0.1667    0.0000
  band No.  band energies     occupation 
      1      -8.0699      2.00000
      2      -5.5020      2.00000
      3      -1.2434      2.00000
      4      -1.2036      2.00000
      5      -0.2950      0.00000
      6       0.6459      0.00000
      7       1.6968      0.00000
      8       1.7300      0.00000

 k-point    21 :       0.3333    0.1667    0.0000
  band No.  band energies     occupation 
      1      -7.9144      2.00000
      2      -5.7832      2.00000
      3      -1.4500      2.00000
      4      -1.2966      2.00000
[...]
      8       2.5471      0.00000

 k-point    37 :       0.5000    0.3333    0.0000
  band No.  band energies     occupation 
      1      -7.3488      2.00000
      2      -6.5716      2.00000
      3      -1.8449      2.00000
      4      -1.5959      2.00000
      5       0.1136      0.00000
      6       0.6564      0.00000
      7       2.5672      0.00000
      8       2.5796      0.00000

 k-point    38 :      -0.4167    0.3333    0.0000
  band No.  band energies     occupation 
      1      -7.2440      2.00000
      2      -6.6915      2.00000
      3      -1.9898      2.00000
      4      -1.5481      2.00000
      5       0.0709      0.00000
      6       1.0458      0.00000
      7       2.4610      0.00000
      8       2.5096      0.00000

 k-point    39 :      -0.3333    0.3333    0.0000
  band No.  band energies     occupation 
      1      -7.3393      2.00000
      2      -6.5814      2.00000
      3      -2.0428      2.00000
      4      -1.4535      2.00000
      5      -0.0071      0.00000
      6       1.3650      0.00000
      7       2.2498      0.00000
      8       2.3844      0.00000

 k-point    40 :       0.4167    0.4167    0.0000
  band No.  band energies     occupation 
      1      -7.3666      2.00000
      2      -6.5523      2.00000
      3      -1.6589      2.00000
      4      -1.6589      2.00000
      5       0.1639      0.00000
      6       0.2049      0.00000
      7       2.7372      0.00000
      8       2.7372      0.00000

 k-point    41 :       0.5000    0.4167    0.0000
  band No.  band energies     occupation 
      1      -7.1753      2.00000
      2      -6.7708      2.00000
      3      -1.7548      2.00000
      4      -1.6749      2.00000
      5       0.1702      0.00000
      6       0.3198      0.00000
      7       2.7823      0.00000
      8       2.7900      0.00000

 k-point    42 :      -0.4167    0.4167    0.0000
  band No.  band energies     occupation 
      1      -7.0743      2.00000
      2      -6.8766      2.00000
      3      -1.8971      2.00000
      4      -1.6362      2.00000
      5       0.1427      0.00000
      6       0.6547      0.00000
      7       2.6781      0.00000
      8       2.6891      0.00000

 k-point    43 :       0.5000    0.5000    0.0000
  band No.  band energies     occupation 
      1      -6.9781      2.00000
      2      -6.9781      2.00000
      3      -1.7024      2.00000
      4      -1.7024      2.00000
      5       0.1803      0.00000
      6       0.1803      0.00000
      7       2.8718      0.00000
      8       2.8718      0.00000

 k-point    44 :       0.2500    0.1667    0.0833
  band No.  band energies     occupation 
      1      -8.1414      2.00000
      2      -5.3617      2.00000
      3      -1.1993      2.00000
      4      -1.0107      1.99815
      5      -0.4783      0.00000
      6       0.8378      0.00000
      7       1.4230      0.00000
      8       1.5834      0.00000

 k-point    45 :       0.3333    0.1667    0.0833
  band No.  band energies     occupation 
      1      -8.0003      2.00000
      2      -5.6346      2.00000
      3      -1.4216      2.00000
      4      -1.1043      1.99996
      5      -0.4381      0.00000
      6       0.9797      0.00000
      7       1.6113      0.00000
      8       1.8535      0.00000

 k-point    46 :       0.4167    0.1667    0.0833
  band No.  band energies     occupation 
      1      -7.8267      2.00000
      2      -5.9303      2.00000
      3      -1.6001      2.00000
      4      -1.2029      2.00000
      5      -0.4496      0.00000
      6       1.2130      0.00000
      7       1.7667      0.00000
      8       2.1179      0.00000

 k-point    47 :       0.5000    0.1667    0.0833
  band No.  band energies     occupation 
      1      -7.6627      2.00000
      2      -6.1788      2.00000
      3      -1.7145      2.00000
      4      -1.2724      2.00000
      5      -0.4764      0.00000
      6       1.4167      0.00000
      7       1.8351      0.00000
      8       2.3754      0.00000

 k-point    48 :      -0.4167    0.1667    0.0833
  band No.  band energies     occupation 
      1      -7.5885      2.00000
      2      -6.2829      2.00000
      3      -1.7538      2.00000
      4      -1.2970      2.00000
      5      -0.4886      0.00000
      6       1.4963      0.00000
      7       1.8477      0.00000
      8       2.4973      0.00000

 k-point    49 :       0.3333    0.2500    0.0833
  band No.  band energies     occupation 
      1      -7.9445      2.00000
      2      -5.7293      2.00000
      3      -1.4441      2.00000
      4      -1.2817      2.00000
      5      -0.1740      0.00000
      6       0.6358      0.00000
      7       1.8990      0.00000
      8       1.9696      0.00000

 k-point    50 :       0.4167    0.2500    0.0833
  band No.  band energies     occupation 
      1      -7.7781      2.00000
      2      -5.9992      2.00000
      3      -1.6460      2.00000
      4      -1.3667      2.00000
      5      -0.1147      0.00000
      6       0.8070      0.00000
      7       2.0631      0.00000
      8       2.1682      0.00000

 k-point    51 :       0.5000    0.2500    0.0833
  band No.  band energies     occupation 
      1      -7.6008      2.00000
      2      -6.2556      2.00000
      3      -1.8096      2.00000
      4      -1.4236      2.00000
      5      -0.1157      0.00000
      6       1.0843      0.00000
      7       2.1211      0.00000
      8       2.3340      0.00000

 k-point    52 :      -0.4167    0.2500    0.0833
  band No.  band energies     occupation 
      1      -7.4831      2.00000
      2      -6.4114      2.00000
      3      -1.9073      2.00000
      4      -1.4292      2.00000
      5      -0.1385      0.00000
      6       1.3212      0.00000
      7       2.0972      0.00000
      8       2.4216      0.00000

 k-point    53 :      -0.3333    0.2500    0.0833
  band No.  band energies     occupation 
      1      -7.5165      2.00000
      2      -6.3681      2.00000
      3      -1.9207      2.00000
      4      -1.3815      2.00000
      5      -0.1640      0.00000
      6       1.3907      0.00000
      7       2.0322      0.00000
      8       2.3697      0.00000

 k-point    54 :      -0.2500    0.2500    0.0833
  band No.  band energies     occupation 
      1      -7.6700      2.00000
      2      -6.1592      2.00000
      3      -1.8416      2.00000
      4      -1.2913      2.00000
      5      -0.2038      0.00000
      6       1.2665      0.00000
      7       1.9452      0.00000
      8       2.2137      0.00000

 k-point    55 :      -0.1667    0.2500    0.0833
  band No.  band energies     occupation 
      1      -7.8481      2.00000
      2      -5.8913      2.00000
      3      -1.6710      2.00000
      4      -1.1838      2.00000
      5      -0.2912      0.00000
      6       1.0812      0.00000
      7       1.7876      0.00000
      8       2.0555      0.00000

 k-point    56 :       0.4167    0.3333    0.0833
  band No.  band energies     occupation 
      1      -7.6783      2.00000
      2      -6.1441      2.00000
      3      -1.6308      2.00000
      4      -1.5123      2.00000
      5       0.0829      0.00000
      6       0.4741      0.00000
      7       2.3265      0.00000
      8       2.3526      0.00000

 k-point    57 :       0.5000    0.3333    0.0833
  band No.  band energies     occupation 
      1      -7.4960      2.00000
      2      -6.3899      2.00000
      3      -1.7991      2.00000
      4      -1.5719      2.00000
      5       0.1395      0.00000
      6       0.6895      0.00000
      7       2.3854      0.00000
      8       2.4672      0.00000

 k-point    58 :      -0.4167    0.3333    0.0833
  band No.  band energies     occupation 
      1      -7.3424      2.00000
      2      -6.5782      2.00000
      3      -1.9435      2.00000
      4      -1.5724      2.00000
      5       0.1265      0.00000
      6       1.0229      0.00000
      7       2.3615      0.00000
      8       2.4600      0.00000

 k-point    59 :      -0.3333    0.3333    0.0833
  band No.  band energies     occupation 
      1      -7.3392      2.00000
      2      -6.5815      2.00000
      3      -2.0137      2.00000
      4      -1.5143      2.00000
      5       0.0794      0.00000
      6       1.2855      0.00000
      7       2.2597      0.00000
      8       2.3753      0.00000

 k-point    60 :      -0.2500    0.3333    0.0833
  band No.  band energies     occupation 
      1      -7.4890      2.00000
      2      -6.3987      2.00000
      3      -1.9826      2.00000
      4      -1.4113      2.00000
      5      -0.0196      0.00000
      6       1.3429      0.00000
      7       2.1253      0.00000
      8       2.2727      0.00000

 k-point    61 :       0.5000    0.4167    0.0833
  band No.  band energies     occupation 
      1      -7.3519      2.00000
      2      -6.5684      2.00000
      3      -1.7356      2.00000
      4      -1.6732      2.00000
      5       0.2348      0.00000
      6       0.3704      0.00000
      7       2.6162      0.00000
      8       2.6784      0.00000

 k-point    62 :      -0.4167    0.4167    0.0833
  band No.  band energies     occupation 
      1      -7.1713      2.00000
      2      -6.7723      2.00000
      3      -1.8723      2.00000
      4      -1.6864      2.00000
      5       0.2606      0.00000
      6       0.6422      0.00000
      7       2.5830      0.00000
      8       2.6413      0.00000

 k-point    63 :      -0.3333    0.4167    0.0833
  band No.  band energies     occupation 
      1      -7.1650      2.00000
      2      -6.7776      2.00000
      3      -1.9892      2.00000
      4      -1.6247      2.00000
      5       0.2093      0.00000
      6       1.0136      0.00000
      7       2.4627      0.00000
      8       2.4866      0.00000

 k-point    64 :      -0.4167    0.5000    0.0833
  band No.  band energies     occupation 
      1      -6.9771      2.00000
      2      -6.9771      2.00000
      3      -1.7498      2.00000
      4      -1.7498      2.00000
      5       0.3078      0.00000
      6       0.3078      0.00000
      7       2.7686      0.00000
      8       2.7686      0.00000

 k-point    65 :       0.5000    0.3333    0.1667
  band No.  band energies     occupation 
      1      -7.6048      2.00000
      2      -6.2465      2.00000
      3      -1.8254      2.00000
      4      -1.4604      2.00000
      5       0.0535      0.00000
      6       0.9080      0.00000
      7       2.2434      0.00000
      8       2.2437      0.00000

 k-point    66 :      -0.4167    0.3333    0.1667
  band No.  band energies     occupation 
      1      -7.4284      2.00000
      2      -6.4742      2.00000
      3      -1.9392      2.00000
      4      -1.5460      2.00000
      5       0.1481      0.00000
      6       1.0941      0.00000
      7       2.2641      0.00000
      8       2.3458      0.00000

 k-point    67 :      -0.3333    0.3333    0.1667
  band No.  band energies     occupation 
      1      -7.3392      2.00000
      2      -6.5816      2.00000
      3      -1.9779      2.00000
      4      -1.5793      2.00000
      5       0.1727      0.00000
      6       1.1976      0.00000
      7       2.2703      0.00000
      8       2.3652      0.00000

 k-point    68 :      -0.4167    0.4167    0.1667
  band No.  band energies     occupation 
      1      -7.3097      2.00000
      2      -6.6151      2.00000
      3      -1.8818      2.00000
      4      -1.6883      2.00000
      5       0.3593      0.00000
      6       0.7506      0.00000
      7       2.3971      0.00000
      8       2.5142      0.00000

 k-point    69 :      -0.3333    0.4167    0.1667
  band No.  band energies     occupation 
      1      -7.1673      2.00000
      2      -6.7738      2.00000
      3      -1.9493      2.00000
      4      -1.7298      2.00000
      5       0.4360      0.00000
      6       0.9402      0.00000
      7       2.3774      0.00000
      8       2.4282      0.00000

 k-point    70 :      -0.2500    0.4167    0.1667
  band No.  band energies     occupation 
      1      -7.2453      2.00000
      2      -6.6875      2.00000
      3      -1.9834      2.00000
      4      -1.6672      2.00000
      5       0.3547      0.00000
      6       1.0804      0.00000
      7       2.3360      0.00000
      8       2.3557      0.00000

 k-point    71 :      -0.3333    0.5000    0.1667
  band No.  band energies     occupation 
      1      -6.9751      2.00000
      2      -6.9751      2.00000
      3      -1.8343      2.00000
      4      -1.8343      2.00000
      5       0.5838      0.00000
      6       0.5838      0.00000
      7       2.5274      0.00000
      8       2.5274      0.00000

 k-point    72 :      -0.2500    0.5000    0.2500
  band No.  band energies     occupation 
      1      -6.9741      2.00000
      2      -6.9741      2.00000
      3      -1.8724      2.00000
      4      -1.8724      2.00000
      5       0.7430      0.00000
      6       0.7430      0.00000
      7       2.3803      0.00000
      8       2.3803      0.00000


--------------------------------------------------------------------------------------------------------


 soft charge-density along one line, spin component           1
         0         1         2         3         4         5         6         7         8         9
 total charge-density along one line
 
 pseudopotential strength for first ion, spin component:           1
 19.248   0.006   0.000   0.000   0.000  -0.000  -0.000  -0.000
  0.006   0.006  -0.000  -0.000  -0.000   0.000   0.000   0.000
  0.000  -0.000   4.282  -0.000  -0.000   0.000   0.000   0.000
  0.000  -0.000  -0.000   4.282  -0.000   0.000   0.000   0.000
  0.000  -0.000  -0.000  -0.000   4.282   0.000   0.000   0.000
 -0.000   0.000   0.000   0.000   0.000   0.004  -0.000  -0.000
 -0.000   0.000   0.000   0.000   0.000  -0.000   0.004  -0.000
 -0.000   0.000   0.000   0.000   0.000  -0.000  -0.000   0.004
 total augmentation occupancy for first ion, spin component:           1
  1.921   0.113   0.000   0.000   0.000  -0.000  -0.000  -0.000
  0.113   0.082  -0.000  -0.000  -0.000  -0.000  -0.000  -0.000
  0.000  -0.000   0.623   0.000  -0.000  -0.104   0.000  -0.000
  0.000  -0.000  -0.000   0.623   0.000   0.000  -0.104  -0.000
  0.000  -0.000  -0.000  -0.000   0.623  -0.000  -0.000  -0.104
 -0.000  -0.000  -0.104   0.000  -0.000   0.024   0.000   0.000
 -0.000  -0.000   0.000  -0.104  -0.000  -0.000   0.024  -0.000
 -0.000  -0.000  -0.000  -0.000  -0.104   0.000  -0.000   0.024


------------------------ aborting loop because EDIFF is reached ----------------------------------------


    CHARGE:  cpu time    0.06: real time    0.06
    FORLOC:  cpu time    0.00: real time    0.00
    FORNL :  cpu time    0.08: real time    0.08
    STRESS:  cpu time    0.75: real time    0.75
    FORCOR:  cpu time    0.04: real time    0.07
    FORHAR:  cpu time    0.01: real time    0.01
    MIXING:  cpu time    0.00: real time    0.00
    OFIELD:  cpu time    0.00: real time    0.00

  FORCE on cell =-STRESS in cart. coord.  units (eV):
  Direction    XX          YY          ZZ          XY          YZ          ZX
  --------------------------------------------------------------------------------------
  Alpha Z     1.21684     1.21684     1.21684
  Ewald     -54.28407   -54.28407   -54.28407     0.00000     0.00000    -0.00000
  Hartree    10.25399    10.25399    10.25399    -0.00000    -0.00000    -0.00000
  E(xc)     -21.97001   -21.97001   -21.97001    -0.00000    -0.00000    -0.00000
  Local     -49.08650   -49.08650   -49.08650     0.00001     0.00001     0.00001
  n-local    77.95329    79.45180    73.55424     1.28175    -0.39534    -0.11979
  augment   -13.37860   -13.37860   -13.37860    -0.00001    -0.00001    -0.00001
  Kinetic    46.82088    48.98543    38.20251     2.82042    -1.08789     0.47607
  Fock        0.00000     0.00000     0.00000     0.00000     0.00000     0.00000
  -------------------------------------------------------------------------------------
  Total      -5.59230    -5.59230    -5.59230     0.00000     0.00000     0.00000
  in kB     -80.96937   -80.96937   -80.96937     0.00000     0.00000     0.00000
  external pressure =      -80.97 kB  Pullay stress =        0.00 kB


 VOLUME and BASIS-vectors are now :
 -----------------------------------------------------------------------------
  energy-cutoff  :      600.00
  volume of cell :      110.66
      direct lattice vectors                 reciprocal lattice vectors
     0.000000000  3.810511777  3.810511777    -0.131215970  0.131215970  0.131215970
     3.810511777  0.000000000  3.810511777     0.131215970 -0.131215970  0.131215970
     3.810511777  3.810511777  0.000000000     0.131215970  0.131215970 -0.131215970

  length of vectors
     5.388877434  5.388877434  5.388877434     0.227272727  0.227272727  0.227272727


 FORCES acting on ions
    electron-ion (+dipol)            ewald-force                    non-local-force                 convergence-correction
 -----------------------------------------------------------------------------------------------
   0.553E-07 0.553E-07 0.536E-07   0.163E-15 0.256E-15 0.109E-14   -.416E-16 -.278E-16 -.382E-16   0.123E-13 0.101E-13 0.948E-14
   -.553E-07 -.553E-07 -.536E-07   -.214E-15 -.351E-15 -.130E-14   0.486E-16 0.278E-16 0.416E-16   -.111E-13 -.128E-13 -.760E-14
 -----------------------------------------------------------------------------------------------
   -.708E-13 0.594E-14 0.734E-13   -.504E-16 -.954E-16 -.215E-15   0.694E-17 0.000E+00 0.347E-17   0.121E-14 -.266E-14 0.188E-14
 
 
 POSITION                                       TOTAL-FORCE (eV/Angst)
 -----------------------------------------------------------------------------------
      0.00000      0.00000      0.00000         0.000000      0.000000      0.000000
      1.90526      1.90526      1.90526        -0.000000     -0.000000     -0.000000
 -----------------------------------------------------------------------------------
    total drift:                               -0.000000      0.000000      0.000000


--------------------------------------------------------------------------------------------------------



  FREE ENERGIE OF THE ION-ELECTRON SYSTEM (eV)
  ---------------------------------------------------
  free  energy   TOTEN  =        -6.10300120 eV

  energy  without entropy=       -6.10081948  energy(sigma->0) =       -6.10191034
 


--------------------------------------------------------------------------------------------------------


    POTLOK:  cpu time    0.04: real time    0.04


--------------------------------------------------------------------------------------------------------


 writing wavefunctions
     LOOP+:  cpu time   16.05: real time   17.08
    4ORBIT:  cpu time    0.00: real time    0.00

 total amount of memory used by VASP on root node    62812. kBytes
========================================================================

   base      :      30000. kBytes
   nonl-proj :      17260. kBytes
   fftplans  :       2401. kBytes
   grid      :       4538. kBytes
   one-center:          6. kBytes
   wavefun   :       8607. kBytes
 
  
  
 General timing and accounting informations for this job:
 ========================================================
  
                  Total CPU time used (sec):       16.812
                            User time (sec):       16.272
                          System time (sec):        0.540
                         Elapsed time (sec):       17.952
  
                   Maximum memory used (kb):       77348.
                   Average memory used (kb):           0.
  
                          Minor page faults:        14903
                          Major page faults:            5
                 Voluntary context switches:          607
