 vasp.5.3.5 31Mar14 (build Jun 01 2017 17:55:53) complex                        
  
 executed on             LinuxIFC date 2020.11.10  15:22:11
 running on    4 total cores
 distrk:  each k-point on    4 cores,    1 groups
 distr:  one band on NCORES_PER_BAND=   1 cores,    4 groups


--------------------------------------------------------------------------------------------------------


 INCAR:
 POTCAR:   PAW_PBE Si 05Jan2001                   
 POTCAR:   PAW_PBE Si 05Jan2001                   
   VRHFIN =Si: s2p2                                                             
   LEXCH  = PE                                                                  
   EATOM  =   103.0669 eV,    7.5752 Ry                                         
                                                                                
   TITEL  = PAW_PBE Si 05Jan2001                                                
   LULTRA =        F    use ultrasoft PP ?                                      
   IUNSCR =        1    unscreen: 0-lin 1-nonlin 2-no                           
   RPACOR =    1.500    partial core radius                                     
   POMASS =   28.085; ZVAL   =    4.000    mass and valenz                      
   RCORE  =    1.900    outmost cutoff radius                                   
   RWIGS  =    2.480; RWIGS  =    1.312    wigner-seitz radius (au A)           
   ENMAX  =  245.345; ENMIN  =  184.009 eV                                      
   ICORE  =        2    local potential                                         
   LCOR   =        T    correct aug charges                                     
   LPAW   =        T    paw PP                                                  
   EAUG   =  322.069                                                            
   DEXC   =    -.007                                                            
   RMAX   =    2.944    core radius for proj-oper                               
   RAUG   =    1.300    factor for augmentation sphere                          
   RDEP   =    1.993    radius for radial grids                                 
   QCUT   =   -4.246; QGAM   =    8.493    optimization parameters              
                                                                                
   Description                                                                  
     l     E      TYP  RCUT    TYP  RCUT                                        
     0   .000     23  1.900                                                     
     0   .000     23  1.900                                                     
     1   .000     23  1.900                                                     
     1   .000     23  1.900                                                     
     2   .000      7  1.900                                                     
  local pseudopotential read in
  partial core-charges read in
  atomic valenz-charges read in
  non local Contribution for L=           0  read in
    real space projection operators read in
  non local Contribution for L=           0  read in
    real space projection operators read in
  non local Contribution for L=           1  read in
    real space projection operators read in
  non local Contribution for L=           1  read in
    real space projection operators read in
    PAW grid and wavefunctions read in
 
   number of l-projection  operators is LMAX  =           4
   number of lm-projection operators is LMMAX =           8
 
 PAW_PBE Si 05Jan2001                   :
 energy of atom  1       EATOM= -103.0669
 kinetic energy error for atom=    0.0003 (will be added to EATOM!!)
 
 
 POSCAR: Si
  positions in direct lattice
  velocities in cartesian coordinates
  No initial velocities read in
 exchange correlation table for  LEXCH =        8
   RHO(1)=    0.500       N(1)  =     2000
   RHO(2)=  100.500       N(2)  =     4000
 


--------------------------------------------------------------------------------------------------------


 ion  position               nearest neighbor table
   1  0.000  0.000  0.000-
   2  0.250  0.250  0.250-
 
  LATTYP: Found a face centered cubic cell.
 ALAT       =     7.8519636610
  
  Lattice vectors:
  
 A1 = (   0.0000000000,   3.9259818305,   3.9259818305)
 A2 = (   3.9259818305,   0.0000000000,   3.9259818305)
 A3 = (   3.9259818305,   3.9259818305,   0.0000000000)


Analysis of symmetry for initial positions (statically):
=====================================================================
 Subroutine PRICEL returns:
 Original cell was already a primitive cell.
 

 Routine SETGRP: Setting up the symmetry group for a 
 face centered cubic supercell.


 Subroutine GETGRP returns: Found 48 space group operations
 (whereof 24 operations were pure point group operations)
 out of a pool of 48 trial point group operations.


The static configuration has the point symmetry T_d .
 The point group associated with its full space group is O_h .


Analysis of symmetry for dynamics (positions and initial velocities):
=====================================================================
 Subroutine PRICEL returns:
 Original cell was already a primitive cell.
 

 Routine SETGRP: Setting up the symmetry group for a 
 face centered cubic supercell.


 Subroutine GETGRP returns: Found 48 space group operations
 (whereof 24 operations were pure point group operations)
 out of a pool of 48 trial point group operations.


The dynamic configuration has the point symmetry T_d .
 The point group associated with its full space group is O_h .


Analysis of constrained symmetry for selective dynamics:
=====================================================================
 Subroutine PRICEL returns:
 Original cell was already a primitive cell.
 

 Routine SETGRP: Setting up the symmetry group for a 
 face centered cubic supercell.


 Subroutine GETGRP returns: Found 48 space group operations
 (whereof 24 operations were pure point group operations)
 out of a pool of 48 trial point group operations.


The constrained configuration has the point symmetry T_d .
 The point group associated with its full space group is O_h .
 
 
 KPOINTS: Gamma centered Monkhorst-Pack           

Automatic generation of k-mesh.
Space group operators:
 irot       det(A)        alpha          n_x          n_y          n_z        tau_x        tau_y        tau_z
    1     1.000000     0.000000     1.000000     0.000000     0.000000     0.000000     0.000000     0.000000
    2     1.000000   120.000000    -0.577350    -0.577350    -0.577350     0.000000     0.000000     0.000000
    3     1.000000   120.000000     0.577350     0.577350     0.577350     0.000000     0.000000     0.000000
    4    -1.000000    90.000000     0.000000     0.000000    -1.000000     0.000000     0.000000     0.000000
    5    -1.000000   180.000000     0.000000     0.707107     0.707107     0.000000     0.000000     0.000000
    6    -1.000000    90.000000     0.000000     1.000000     0.000000     0.000000     0.000000     0.000000
    7     1.000000   180.000000     0.000000     0.000000     1.000000     0.000000     0.000000     0.000000
    8     1.000000   120.000000    -0.577350     0.577350     0.577350     0.000000     0.000000     0.000000
    9     1.000000   120.000000    -0.577350     0.577350    -0.577350     0.000000     0.000000     0.000000
   10    -1.000000    90.000000     0.000000     0.000000     1.000000     0.000000     0.000000     0.000000
   11    -1.000000    90.000000    -1.000000     0.000000     0.000000     0.000000     0.000000     0.000000
   12    -1.000000   180.000000     0.707107     0.000000     0.707107     0.000000     0.000000     0.000000
   13     1.000000   120.000000     0.577350    -0.577350     0.577350     0.000000     0.000000     0.000000
   14     1.000000   120.000000    -0.577350    -0.577350     0.577350     0.000000     0.000000     0.000000
   15     1.000000   180.000000     1.000000     0.000000     0.000000     0.000000     0.000000     0.000000
   16    -1.000000    90.000000     0.000000    -1.000000     0.000000     0.000000     0.000000     0.000000
   17    -1.000000   180.000000     0.707107     0.707107     0.000000     0.000000     0.000000     0.000000
   18    -1.000000    90.000000     1.000000     0.000000     0.000000     0.000000     0.000000     0.000000
   19     1.000000   120.000000     0.577350    -0.577350    -0.577350     0.000000     0.000000     0.000000
   20     1.000000   180.000000     0.000000     1.000000     0.000000     0.000000     0.000000     0.000000
   21     1.000000   120.000000     0.577350     0.577350    -0.577350     0.000000     0.000000     0.000000
   22    -1.000000   180.000000     0.000000    -0.707107     0.707107     0.000000     0.000000     0.000000
   23    -1.000000   180.000000     0.707107    -0.707107     0.000000     0.000000     0.000000     0.000000
   24    -1.000000   180.000000     0.707107     0.000000    -0.707107     0.000000     0.000000     0.000000
   25    -1.000000     0.000000     1.000000     0.000000     0.000000     0.250000     0.250000     0.250000
   26    -1.000000   120.000000    -0.577350    -0.577350    -0.577350     0.250000     0.250000     0.250000
   27    -1.000000   120.000000     0.577350     0.577350     0.577350     0.250000     0.250000     0.250000
   28     1.000000    90.000000     0.000000     0.000000    -1.000000     0.250000     0.250000     0.250000
   29     1.000000   180.000000     0.000000     0.707107     0.707107     0.250000     0.250000     0.250000
   30     1.000000    90.000000     0.000000     1.000000     0.000000     0.250000     0.250000     0.250000
   31    -1.000000   180.000000     0.000000     0.000000     1.000000     0.250000     0.250000     0.250000
   32    -1.000000   120.000000    -0.577350     0.577350     0.577350     0.250000     0.250000     0.250000
   33    -1.000000   120.000000    -0.577350     0.577350    -0.577350     0.250000     0.250000     0.250000
   34     1.000000    90.000000     0.000000     0.000000     1.000000     0.250000     0.250000     0.250000
   35     1.000000    90.000000    -1.000000     0.000000     0.000000     0.250000     0.250000     0.250000
   36     1.000000   180.000000     0.707107     0.000000     0.707107     0.250000     0.250000     0.250000
   37    -1.000000   120.000000     0.577350    -0.577350     0.577350     0.250000     0.250000     0.250000
   38    -1.000000   120.000000    -0.577350    -0.577350     0.577350     0.250000     0.250000     0.250000
   39    -1.000000   180.000000     1.000000     0.000000     0.000000     0.250000     0.250000     0.250000
   40     1.000000    90.000000     0.000000    -1.000000     0.000000     0.250000     0.250000     0.250000
   41     1.000000   180.000000     0.707107     0.707107     0.000000     0.250000     0.250000     0.250000
   42     1.000000    90.000000     1.000000     0.000000     0.000000     0.250000     0.250000     0.250000
   43    -1.000000   120.000000     0.577350    -0.577350    -0.577350     0.250000     0.250000     0.250000
   44    -1.000000   180.000000     0.000000     1.000000     0.000000     0.250000     0.250000     0.250000
   45    -1.000000   120.000000     0.577350     0.577350    -0.577350     0.250000     0.250000     0.250000
   46     1.000000   180.000000     0.000000    -0.707107     0.707107     0.250000     0.250000     0.250000
   47     1.000000   180.000000     0.707107    -0.707107     0.000000     0.250000     0.250000     0.250000
   48     1.000000   180.000000     0.707107     0.000000    -0.707107     0.250000     0.250000     0.250000
 
 Subroutine IBZKPT returns following result:
 ===========================================
 
 Found     72 irreducible k-points:
 
 Following reciprocal coordinates:
            Coordinates               Weight
  0.000000  0.000000  0.000000      1.000000
  0.083333  0.000000  0.000000      8.000000
  0.166667  0.000000  0.000000      8.000000
  0.250000  0.000000  0.000000      8.000000
  0.333333  0.000000  0.000000      8.000000
  0.416667  0.000000  0.000000      8.000000
  0.500000  0.000000  0.000000      4.000000
  0.083333  0.083333  0.000000      6.000000
  0.166667  0.083333  0.000000     24.000000
  0.250000  0.083333  0.000000     24.000000
  0.333333  0.083333  0.000000     24.000000
  0.416667  0.083333  0.000000     24.000000
  0.500000  0.083333  0.000000     24.000000
 -0.416667  0.083333  0.000000     24.000000
 -0.333333  0.083333  0.000000     24.000000
 -0.250000  0.083333  0.000000     24.000000
 -0.166667  0.083333  0.000000     24.000000
 -0.083333  0.083333  0.000000     12.000000
  0.166667  0.166667  0.000000      6.000000
  0.250000  0.166667  0.000000     24.000000
  0.333333  0.166667  0.000000     24.000000
  0.416667  0.166667  0.000000     24.000000
  0.500000  0.166667  0.000000     24.000000
 -0.416667  0.166667  0.000000     24.000000
 -0.333333  0.166667  0.000000     24.000000
 -0.250000  0.166667  0.000000     24.000000
 -0.166667  0.166667  0.000000     12.000000
  0.250000  0.250000  0.000000      6.000000
  0.333333  0.250000  0.000000     24.000000
  0.416667  0.250000  0.000000     24.000000
  0.500000  0.250000  0.000000     24.000000
 -0.416667  0.250000  0.000000     24.000000
 -0.333333  0.250000  0.000000     24.000000
 -0.250000  0.250000  0.000000     12.000000
  0.333333  0.333333  0.000000      6.000000
  0.416667  0.333333  0.000000     24.000000
  0.500000  0.333333  0.000000     24.000000
 -0.416667  0.333333  0.000000     24.000000
 -0.333333  0.333333  0.000000     12.000000
  0.416667  0.416667  0.000000      6.000000
  0.500000  0.416667  0.000000     24.000000
 -0.416667  0.416667  0.000000     12.000000
  0.500000  0.500000  0.000000      3.000000
  0.250000  0.166667  0.083333     24.000000
  0.333333  0.166667  0.083333     48.000000
  0.416667  0.166667  0.083333     48.000000
  0.500000  0.166667  0.083333     48.000000
 -0.416667  0.166667  0.083333     24.000000
  0.333333  0.250000  0.083333     24.000000
  0.416667  0.250000  0.083333     48.000000
  0.500000  0.250000  0.083333     48.000000
 -0.416667  0.250000  0.083333     48.000000
 -0.333333  0.250000  0.083333     48.000000
 -0.250000  0.250000  0.083333     48.000000
 -0.166667  0.250000  0.083333     24.000000
  0.416667  0.333333  0.083333     24.000000
  0.500000  0.333333  0.083333     48.000000
 -0.416667  0.333333  0.083333     48.000000
 -0.333333  0.333333  0.083333     48.000000
 -0.250000  0.333333  0.083333     24.000000
  0.500000  0.416667  0.083333     24.000000
 -0.416667  0.416667  0.083333     48.000000
 -0.333333  0.416667  0.083333     24.000000
 -0.416667  0.500000  0.083333     12.000000
  0.500000  0.333333  0.166667     24.000000
 -0.416667  0.333333  0.166667     48.000000
 -0.333333  0.333333  0.166667     24.000000
 -0.416667  0.416667  0.166667     24.000000
 -0.333333  0.416667  0.166667     48.000000
 -0.250000  0.416667  0.166667     24.000000
 -0.333333  0.500000  0.166667     12.000000
 -0.250000  0.500000  0.250000      6.000000
 
 Following cartesian coordinates:
            Coordinates               Weight
  0.000000  0.000000  0.000000      1.000000
 -0.083333  0.083333  0.083333      8.000000
 -0.166667  0.166667  0.166667      8.000000
 -0.250000  0.250000  0.250000      8.000000
 -0.333333  0.333333  0.333333      8.000000
 -0.416667  0.416667  0.416667      8.000000
 -0.500000  0.500000  0.500000      4.000000
  0.000000  0.000000  0.166667      6.000000
 -0.083333  0.083333  0.250000     24.000000
 -0.166667  0.166667  0.333333     24.000000
 -0.250000  0.250000  0.416667     24.000000
 -0.333333  0.333333  0.500000     24.000000
 -0.416667  0.416667  0.583333     24.000000
  0.500000 -0.500000 -0.333333     24.000000
  0.416667 -0.416667 -0.250000     24.000000
  0.333333 -0.333333 -0.166667     24.000000
  0.250000 -0.250000 -0.083333     24.000000
  0.166667 -0.166667  0.000000     12.000000
  0.000000  0.000000  0.333333      6.000000
 -0.083333  0.083333  0.416667     24.000000
 -0.166667  0.166667  0.500000     24.000000
 -0.250000  0.250000  0.583333     24.000000
 -0.333333  0.333333  0.666667     24.000000
  0.583333 -0.583333 -0.250000     24.000000
  0.500000 -0.500000 -0.166667     24.000000
  0.416667 -0.416667 -0.083333     24.000000
  0.333333 -0.333333  0.000000     12.000000
  0.000000  0.000000  0.500000      6.000000
 -0.083333  0.083333  0.583333     24.000000
 -0.166667  0.166667  0.666667     24.000000
 -0.250000  0.250000  0.750000     24.000000
  0.666667 -0.666667 -0.166667     24.000000
  0.583333 -0.583333 -0.083333     24.000000
  0.500000 -0.500000  0.000000     12.000000
  0.000000  0.000000  0.666667      6.000000
 -0.083333  0.083333  0.750000     24.000000
 -0.166667  0.166667  0.833333     24.000000
  0.750000 -0.750000 -0.083333     24.000000
  0.666667 -0.666667  0.000000     12.000000
  0.000000  0.000000  0.833333      6.000000
 -0.083333  0.083333  0.916667     24.000000
  0.833333 -0.833333  0.000000     12.000000
  0.000000  0.000000  1.000000      3.000000
  0.000000  0.166667  0.333333     24.000000
 -0.083333  0.250000  0.416667     48.000000
 -0.166667  0.333333  0.500000     48.000000
 -0.250000  0.416667  0.583333     48.000000
  0.666667 -0.500000 -0.333333     24.000000
  0.000000  0.166667  0.500000     24.000000
 -0.083333  0.250000  0.583333     48.000000
 -0.166667  0.333333  0.666667     48.000000
  0.750000 -0.583333 -0.250000     48.000000
  0.666667 -0.500000 -0.166667     48.000000
  0.583333 -0.416667 -0.083333     48.000000
  0.500000 -0.333333  0.000000     24.000000
 -0.000000  0.166667  0.666667     24.000000
 -0.083333  0.250000  0.750000     48.000000
  0.833333 -0.666667 -0.166667     48.000000
  0.750000 -0.583333 -0.083333     48.000000
  0.666667 -0.500000 -0.000000     24.000000
  0.000000  0.166667  0.833333     24.000000
  0.916667 -0.750000 -0.083333     48.000000
  0.833333 -0.666667  0.000000     24.000000
  1.000000 -0.833333  0.000000     12.000000
  0.000000  0.333333  0.666667     24.000000
  0.916667 -0.583333 -0.250000     48.000000
  0.833333 -0.500000 -0.166667     24.000000
  1.000000 -0.666667 -0.166667     24.000000
  0.916667 -0.583333 -0.083333     48.000000
  0.833333 -0.500000  0.000000     24.000000
  1.000000 -0.666667  0.000000     12.000000
  1.000000 -0.500000  0.000000      6.000000
 


--------------------------------------------------------------------------------------------------------




 Dimension of arrays:
   k-points           NKPTS =     72   k-points in BZ     NKDIM =     72   number of bands    NBANDS=      8
   number of dos      NEDOS =    301   number of ions     NIONS =      2
   non local maximal  LDIM  =      4   non local SUM 2l+1 LMDIM =      8
   total plane-waves  NPLWV =  46656
   max r-space proj   IRMAX =      1   max aug-charges    IRDMAX=  13087
   dimension x,y,z NGX =    36 NGY =   36 NGZ =   36
   dimension x,y,z NGXF=    72 NGYF=   72 NGZF=   72
   support grid    NGXF=    72 NGYF=   72 NGZF=   72
   ions per type =               2
 NGX,Y,Z   is equivalent  to a cutoff of  10.78, 10.78, 10.78 a.u.
 NGXF,Y,Z  is equivalent  to a cutoff of  21.56, 21.56, 21.56 a.u.


 I would recommend the setting:
   dimension x,y,z NGX =    33 NGY =   33 NGZ =   33
 SYSTEM =  Si
 POSCAR =  Si

 Startparameter for this run:
   NWRITE =      2    write-flag & timer
   PREC   = normal    normal or accurate (medium, high low for compatibility)
   ISTART =      0    job   : 0-new  1-cont  2-samecut
   ICHARG =      2    charge: 1-file 2-atom 10-const
   ISPIN  =      1    spin polarized calculation?
   LNONCOLLINEAR =      F non collinear calculations
   LSORBIT =      F    spin-orbit coupling
   INIWAV =      1    electr: 0-lowe 1-rand  2-diag
   LASPH  =      F    aspherical Exc in radial PAW
   METAGGA=      F    non-selfconsistent MetaGGA calc.

 Electronic Relaxation 1
   ENCUT  =  600.0 eV  44.10 Ry    6.64 a.u.  11.09 11.09 11.09*2*pi/ulx,y,z
   ENINI  =  600.0     initial cutoff
   ENAUG  = 1200.0 eV  augmentation charge cutoff
   NELM   =    500;   NELMIN=  2; NELMDL= -5     # of ELM steps 
   EDIFF  = 0.1E-09   stopping-criterion for ELM
   LREAL  =      F    real-space projection
   NLSPLINE    = F    spline interpolate recip. space projectors
   LCOMPAT=      F    compatible to vasp.4.4
   GGA_COMPAT  = T    GGA compatible to vasp.4.4-vasp.4.6
   LMAXPAW     = -100 max onsite density
   LMAXMIX     =    2 max onsite mixed and CHGCAR
   VOSKOWN=      0    Vosko Wilk Nusair interpolation
   ROPT   =    0.00000
 Ionic relaxation
   EDIFFG = 0.1E-08   stopping-criterion for IOM
   NSW    =      0    number of steps for IOM
   NBLOCK =      1;   KBLOCK =      1    inner block; outer block 
   IBRION =     -1    ionic relax: 0-MD 1-quasi-New 2-CG
   NFREE  =      0    steps in history (QN), initial steepest desc. (CG)
   ISIF   =      2    stress and relaxation
   IWAVPR =     10    prediction:  0-non 1-charg 2-wave 3-comb
   ISYM   =      2    0-nonsym 1-usesym 2-fastsym
   LCORR  =      T    Harris-Foulkes like correction to forces

   POTIM  = 0.5000    time-step for ionic-motion
   TEIN   =    0.0    initial temperature
   TEBEG  =    0.0;   TEEND  =   0.0 temperature during run
   SMASS  =  -3.00    Nose mass-parameter (am)
   estimated Nose-frequenzy (Omega)   =  0.10E-29 period in steps =****** mass=  -0.704E-27a.u.
   SCALEE = 1.0000    scale energy and forces
   NPACO  =    256;   APACO  = 16.0  distance and # of slots for P.C.
   PSTRESS=    0.0 pullay stress

  Mass of Ions in am
   POMASS =  28.09
  Ionic Valenz
   ZVAL   =   4.00
  Atomic Wigner-Seitz radii
   RWIGS  =  -1.00
  virtual crystal weights 
   VCA    =   1.00
   NELECT =       8.0000    total number of electrons
   NUPDOWN=      -1.0000    fix difference up-down

 DOS related values:
   EMIN   =  10.00;   EMAX   =-10.00  energy-range for DOS
   EFERMI =   0.00
   ISMEAR =    -1;   SIGMA  =   0.03  broadening in eV -4-tet -1-fermi 0-gaus

 Electronic relaxation 2 (details)
   IALGO  =     38    algorithm
   LDIAG  =      T    sub-space diagonalisation (order eigenvalues)
   LSUBROT=      F    optimize rotation matrix (better conditioning)
   TURBO    =      0    0=normal 1=particle mesh
   IRESTART =      0    0=no restart 2=restart with 2 vectors
   NREBOOT  =      0    no. of reboots
   NMIN     =      0    reboot dimension
   EREF     =   0.00    reference energy to select bands
   IMIX   =      4    mixing-type and parameters
     AMIX     =   0.40;   BMIX     =  1.00
     AMIX_MAG =   1.60;   BMIX_MAG =  1.00
     AMIN     =   0.10
     WC   =   100.;   INIMIX=   1;  MIXPRE=   1;  MAXMIX= -45

 Intra band minimization:
   WEIMIN = 0.0000     energy-eigenvalue tresh-hold
   EBREAK =  0.31E-11  absolut break condition
   DEPER  =   0.30     relativ break condition  

   TIME   =   0.40     timestep for ELM

  volume/ion in A,a.u.               =      60.51       408.36
  Fermi-wavevector in a.u.,A,eV,Ry     =   0.661932  1.250870  5.961442  0.438154
  Thomas-Fermi vector in A             =   1.734844
 
 Write flags
   LWAVE  =      T    write WAVECAR
   LCHARG =      T    write CHGCAR
   LVTOT  =      F    write LOCPOT, total local potential
   LVHAR  =      F    write LOCPOT, Hartree potential only
   LELF   =      F    write electronic localiz. function (ELF)
   LORBIT =      0    0 simple, 1 ext, 2 COOP (PROOUT)


 Dipole corrections
   LMONO  =      F    monopole corrections only (constant potential shift)
   LDIPOL =      F    correct potential (dipole corrections)
   IDIPOL =      0    1-x, 2-y, 3-z, 4-all directions 
   EPSILON=  1.0000000 bulk dielectric constant

 Exchange correlation treatment:
   GGA     =    PE    GGA type
   LEXCH   =     8    internal setting for exchange type
   VOSKOWN=      0    Vosko Wilk Nusair interpolation
   LHFCALC =     F    Hartree Fock is set to
   LHFONE  =     F    Hartree Fock one center treatment
   AEXX    =    0.0000 exact exchange contribution

 Linear response parameters
   LEPSILON=     F    determine dielectric tensor
   LRPA    =     F    only Hartree local field effects (RPA)
   LNABLA  =     F    use nabla operator in PAW spheres
   LVEL    =     F    velocity operator in full k-point grid
   LINTERFAST=   F  fast interpolation
   KINTER  =     0    interpolate to denser k-point grid
   CSHIFT  =0.1000    complex shift for real part using Kramers Kronig
   OMEGAMAX=  -1.0    maximum frequency
   DEG_THRESHOLD= 0.2000000E-02 threshold for treating states as degnerate
   RTIME   =    0.100 relaxation time in fs

 Orbital magnetization related:
   ORBITALMAG=     F  switch on orbital magnetization
   LCHIMAG   =     F  perturbation theory with respect to B field
   DQ        =  0.001000  dq finite difference perturbation B field



--------------------------------------------------------------------------------------------------------


 Static calculation
 charge density and potential will be updated during run
 non-spin polarized calculation
 Variant of blocked Davidson
 Davidson routine will perform the subspace rotation
 perform sub-space diagonalisation
    after iterative eigenvector-optimisation
 modified Broyden-mixing scheme, WC =      100.0
 initial mixing is a Kerker type mixing with AMIX =  0.4000 and BMIX =      1.0000
 Hartree-type preconditioning will be used
 using additional bands            4
 reciprocal scheme for non local part
 use partial core corrections
 calculate Harris-corrections to forces 
   (improved forces if not selfconsistent)
 use gradient corrections 
 use of overlap-Matrix (Vanderbilt PP)
 Fermi-smearing in eV        SIGMA  =   0.03


--------------------------------------------------------------------------------------------------------


  energy-cutoff  :      600.00
  volume of cell :      121.02
      direct lattice vectors                 reciprocal lattice vectors
     0.000000000  3.925981830  3.925981830    -0.127356677  0.127356677  0.127356677
     3.925981830  0.000000000  3.925981830     0.127356677 -0.127356677  0.127356677
     3.925981830  3.925981830  0.000000000     0.127356677  0.127356677 -0.127356677

  length of vectors
     5.552176750  5.552176750  5.552176750     0.220588235  0.220588235  0.220588235


 
 k-points in units of 2pi/SCALE and weight: Gamma centered Monkhorst-Pack           
   0.00000000  0.00000000  0.00000000       0.001
  -0.08333333  0.08333333  0.08333333       0.005
  -0.16666667  0.16666667  0.16666667       0.005
  -0.25000000  0.25000000  0.25000000       0.005
  -0.33333333  0.33333333  0.33333333       0.005
  -0.41666667  0.41666667  0.41666667       0.005
  -0.50000000  0.50000000  0.50000000       0.002
   0.00000000  0.00000000  0.16666667       0.003
  -0.08333333  0.08333333  0.25000000       0.014
  -0.16666667  0.16666667  0.33333333       0.014
  -0.25000000  0.25000000  0.41666667       0.014
  -0.33333333  0.33333333  0.50000000       0.014
  -0.41666667  0.41666667  0.58333333       0.014
   0.50000000 -0.50000000 -0.33333333       0.014
   0.41666667 -0.41666667 -0.25000000       0.014
   0.33333333 -0.33333333 -0.16666667       0.014
   0.25000000 -0.25000000 -0.08333333       0.014
   0.16666667 -0.16666667  0.00000000       0.007
   0.00000000  0.00000000  0.33333333       0.003
  -0.08333333  0.08333333  0.41666667       0.014
  -0.16666667  0.16666667  0.50000000       0.014
  -0.25000000  0.25000000  0.58333333       0.014
  -0.33333333  0.33333333  0.66666667       0.014
   0.58333333 -0.58333333 -0.25000000       0.014
   0.50000000 -0.50000000 -0.16666667       0.014
   0.41666667 -0.41666667 -0.08333333       0.014
   0.33333333 -0.33333333  0.00000000       0.007
   0.00000000  0.00000000  0.50000000       0.003
  -0.08333333  0.08333333  0.58333333       0.014
  -0.16666667  0.16666667  0.66666667       0.014
  -0.25000000  0.25000000  0.75000000       0.014
   0.66666667 -0.66666667 -0.16666667       0.014
   0.58333333 -0.58333333 -0.08333333       0.014
   0.50000000 -0.50000000  0.00000000       0.007
   0.00000000  0.00000000  0.66666667       0.003
  -0.08333333  0.08333333  0.75000000       0.014
  -0.16666667  0.16666667  0.83333333       0.014
   0.75000000 -0.75000000 -0.08333333       0.014
   0.66666667 -0.66666667  0.00000000       0.007
   0.00000000  0.00000000  0.83333333       0.003
  -0.08333333  0.08333333  0.91666667       0.014
   0.83333333 -0.83333333  0.00000000       0.007
   0.00000000  0.00000000  1.00000000       0.002
   0.00000000  0.16666667  0.33333333       0.014
  -0.08333333  0.25000000  0.41666667       0.028
  -0.16666667  0.33333333  0.50000000       0.028
  -0.25000000  0.41666667  0.58333333       0.028
   0.66666667 -0.50000000 -0.33333333       0.014
   0.00000000  0.16666667  0.50000000       0.014
  -0.08333333  0.25000000  0.58333333       0.028
  -0.16666667  0.33333333  0.66666667       0.028
   0.75000000 -0.58333333 -0.25000000       0.028
   0.66666667 -0.50000000 -0.16666667       0.028
   0.58333333 -0.41666667 -0.08333333       0.028
   0.50000000 -0.33333333  0.00000000       0.014
  -0.00000000  0.16666667  0.66666667       0.014
  -0.08333333  0.25000000  0.75000000       0.028
   0.83333333 -0.66666667 -0.16666667       0.028
   0.75000000 -0.58333333 -0.08333333       0.028
   0.66666667 -0.50000000 -0.00000000       0.014
   0.00000000  0.16666667  0.83333333       0.014
   0.91666667 -0.75000000 -0.08333333       0.028
   0.83333333 -0.66666667  0.00000000       0.014
   1.00000000 -0.83333333  0.00000000       0.007
   0.00000000  0.33333333  0.66666667       0.014
   0.91666667 -0.58333333 -0.25000000       0.028
   0.83333333 -0.50000000 -0.16666667       0.014
   1.00000000 -0.66666667 -0.16666667       0.014
   0.91666667 -0.58333333 -0.08333333       0.028
   0.83333333 -0.50000000  0.00000000       0.014
   1.00000000 -0.66666667  0.00000000       0.007
   1.00000000 -0.50000000  0.00000000       0.003
 
 k-points in reciprocal lattice and weights: Gamma centered Monkhorst-Pack           
   0.00000000  0.00000000  0.00000000       0.001
   0.08333333  0.00000000  0.00000000       0.005
   0.16666667  0.00000000  0.00000000       0.005
   0.25000000  0.00000000  0.00000000       0.005
   0.33333333  0.00000000  0.00000000       0.005
   0.41666667  0.00000000  0.00000000       0.005
   0.50000000  0.00000000  0.00000000       0.002
   0.08333333  0.08333333  0.00000000       0.003
   0.16666667  0.08333333  0.00000000       0.014
   0.25000000  0.08333333  0.00000000       0.014
   0.33333333  0.08333333  0.00000000       0.014
   0.41666667  0.08333333  0.00000000       0.014
   0.50000000  0.08333333  0.00000000       0.014
  -0.41666667  0.08333333  0.00000000       0.014
  -0.33333333  0.08333333  0.00000000       0.014
  -0.25000000  0.08333333  0.00000000       0.014
  -0.16666667  0.08333333  0.00000000       0.014
  -0.08333333  0.08333333  0.00000000       0.007
   0.16666667  0.16666667  0.00000000       0.003
   0.25000000  0.16666667  0.00000000       0.014
   0.33333333  0.16666667  0.00000000       0.014
   0.41666667  0.16666667  0.00000000       0.014
   0.50000000  0.16666667  0.00000000       0.014
  -0.41666667  0.16666667  0.00000000       0.014
  -0.33333333  0.16666667  0.00000000       0.014
  -0.25000000  0.16666667  0.00000000       0.014
  -0.16666667  0.16666667  0.00000000       0.007
   0.25000000  0.25000000  0.00000000       0.003
   0.33333333  0.25000000  0.00000000       0.014
   0.41666667  0.25000000  0.00000000       0.014
   0.50000000  0.25000000  0.00000000       0.014
  -0.41666667  0.25000000  0.00000000       0.014
  -0.33333333  0.25000000  0.00000000       0.014
  -0.25000000  0.25000000  0.00000000       0.007
   0.33333333  0.33333333  0.00000000       0.003
   0.41666667  0.33333333  0.00000000       0.014
   0.50000000  0.33333333  0.00000000       0.014
  -0.41666667  0.33333333  0.00000000       0.014
  -0.33333333  0.33333333  0.00000000       0.007
   0.41666667  0.41666667  0.00000000       0.003
   0.50000000  0.41666667  0.00000000       0.014
  -0.41666667  0.41666667  0.00000000       0.007
   0.50000000  0.50000000  0.00000000       0.002
   0.25000000  0.16666667  0.08333333       0.014
   0.33333333  0.16666667  0.08333333       0.028
   0.41666667  0.16666667  0.08333333       0.028
   0.50000000  0.16666667  0.08333333       0.028
  -0.41666667  0.16666667  0.08333333       0.014
   0.33333333  0.25000000  0.08333333       0.014
   0.41666667  0.25000000  0.08333333       0.028
   0.50000000  0.25000000  0.08333333       0.028
  -0.41666667  0.25000000  0.08333333       0.028
  -0.33333333  0.25000000  0.08333333       0.028
  -0.25000000  0.25000000  0.08333333       0.028
  -0.16666667  0.25000000  0.08333333       0.014
   0.41666667  0.33333333  0.08333333       0.014
   0.50000000  0.33333333  0.08333333       0.028
  -0.41666667  0.33333333  0.08333333       0.028
  -0.33333333  0.33333333  0.08333333       0.028
  -0.25000000  0.33333333  0.08333333       0.014
   0.50000000  0.41666667  0.08333333       0.014
  -0.41666667  0.41666667  0.08333333       0.028
  -0.33333333  0.41666667  0.08333333       0.014
  -0.41666667  0.50000000  0.08333333       0.007
   0.50000000  0.33333333  0.16666667       0.014
  -0.41666667  0.33333333  0.16666667       0.028
  -0.33333333  0.33333333  0.16666667       0.014
  -0.41666667  0.41666667  0.16666667       0.014
  -0.33333333  0.41666667  0.16666667       0.028
  -0.25000000  0.41666667  0.16666667       0.014
  -0.33333333  0.50000000  0.16666667       0.007
  -0.25000000  0.50000000  0.25000000       0.003
 
 position of ions in fractional coordinates (direct lattice) 
   0.00000000  0.00000000  0.00000000
   0.25000000  0.25000000  0.25000000
 
 position of ions in cartesian coordinates  (Angst):
   0.00000000  0.00000000  0.00000000
   1.96299092  1.96299092  1.96299092
 


--------------------------------------------------------------------------------------------------------


 k-point  1 :   0.0000 0.0000 0.0000  plane waves:    4015
 k-point  2 :   0.0833 0.0000 0.0000  plane waves:    4005
 k-point  3 :   0.1667 0.0000 0.0000  plane waves:    4017
 k-point  4 :   0.2500 0.0000 0.0000  plane waves:    4020
 k-point  5 :   0.3333 0.0000 0.0000  plane waves:    4056
 k-point  6 :   0.4167 0.0000 0.0000  plane waves:    4047
 k-point  7 :   0.5000 0.0000 0.0000  plane waves:    4044
 k-point  8 :   0.0833 0.0833 0.0000  plane waves:    3983
 k-point  9 :   0.1667 0.0833 0.0000  plane waves:    4021
 k-point 10 :   0.2500 0.0833 0.0000  plane waves:    4022
 k-point 11 :   0.3333 0.0833 0.0000  plane waves:    4026
 k-point 12 :   0.4167 0.0833 0.0000  plane waves:    4046
 k-point 13 :   0.5000 0.0833 0.0000  plane waves:    4043
 k-point 14 :  -0.4167 0.0833 0.0000  plane waves:    4032
 k-point 15 :  -0.3333 0.0833 0.0000  plane waves:    4036
 k-point 16 :  -0.2500 0.0833 0.0000  plane waves:    4030
 k-point 17 :  -0.1667 0.0833 0.0000  plane waves:    4029
 k-point 18 :  -0.0833 0.0833 0.0000  plane waves:    4023
 k-point 19 :   0.1667 0.1667 0.0000  plane waves:    4032
 k-point 20 :   0.2500 0.1667 0.0000  plane waves:    4015
 k-point 21 :   0.3333 0.1667 0.0000  plane waves:    4038
 k-point 22 :   0.4167 0.1667 0.0000  plane waves:    4038
 k-point 23 :   0.5000 0.1667 0.0000  plane waves:    4018
 k-point 24 :  -0.4167 0.1667 0.0000  plane waves:    4030
 k-point 25 :  -0.3333 0.1667 0.0000  plane waves:    4039
 k-point 26 :  -0.2500 0.1667 0.0000  plane waves:    4036
 k-point 27 :  -0.1667 0.1667 0.0000  plane waves:    4039
 k-point 28 :   0.2500 0.2500 0.0000  plane waves:    4016
 k-point 29 :   0.3333 0.2500 0.0000  plane waves:    4039
 k-point 30 :   0.4167 0.2500 0.0000  plane waves:    4050
 k-point 31 :   0.5000 0.2500 0.0000  plane waves:    4046
 k-point 32 :  -0.4167 0.2500 0.0000  plane waves:    4034
 k-point 33 :  -0.3333 0.2500 0.0000  plane waves:    4038
 k-point 34 :  -0.2500 0.2500 0.0000  plane waves:    4025
 k-point 35 :   0.3333 0.3333 0.0000  plane waves:    4056
 k-point 36 :   0.4167 0.3333 0.0000  plane waves:    4046
 k-point 37 :   0.5000 0.3333 0.0000  plane waves:    4042
 k-point 38 :  -0.4167 0.3333 0.0000  plane waves:    4052
 k-point 39 :  -0.3333 0.3333 0.0000  plane waves:    4017
 k-point 40 :   0.4167 0.4167 0.0000  plane waves:    4048
 k-point 41 :   0.5000 0.4167 0.0000  plane waves:    4047
 k-point 42 :  -0.4167 0.4167 0.0000  plane waves:    4053
 k-point 43 :   0.5000 0.5000 0.0000  plane waves:    4040
 k-point 44 :   0.2500 0.1667 0.0833  plane waves:    4020
 k-point 45 :   0.3333 0.1667 0.0833  plane waves:    4035
 k-point 46 :   0.4167 0.1667 0.0833  plane waves:    4038
 k-point 47 :   0.5000 0.1667 0.0833  plane waves:    4035
 k-point 48 :  -0.4167 0.1667 0.0833  plane waves:    4024
 k-point 49 :   0.3333 0.2500 0.0833  plane waves:    4018
 k-point 50 :   0.4167 0.2500 0.0833  plane waves:    4045
 k-point 51 :   0.5000 0.2500 0.0833  plane waves:    4051
 k-point 52 :  -0.4167 0.2500 0.0833  plane waves:    4035
 k-point 53 :  -0.3333 0.2500 0.0833  plane waves:    4039
 k-point 54 :  -0.2500 0.2500 0.0833  plane waves:    4040
 k-point 55 :  -0.1667 0.2500 0.0833  plane waves:    4033
 k-point 56 :   0.4167 0.3333 0.0833  plane waves:    4049
 k-point 57 :   0.5000 0.3333 0.0833  plane waves:    4039
 k-point 58 :  -0.4167 0.3333 0.0833  plane waves:    4048
 k-point 59 :  -0.3333 0.3333 0.0833  plane waves:    4048
 k-point 60 :  -0.2500 0.3333 0.0833  plane waves:    4042
 k-point 61 :   0.5000 0.4167 0.0833  plane waves:    4045
 k-point 62 :  -0.4167 0.4167 0.0833  plane waves:    4050
 k-point 63 :  -0.3333 0.4167 0.0833  plane waves:    4055
 k-point 64 :  -0.4167 0.5000 0.0833  plane waves:    4050
 k-point 65 :   0.5000 0.3333 0.1667  plane waves:    4056
 k-point 66 :  -0.4167 0.3333 0.1667  plane waves:    4048
 k-point 67 :  -0.3333 0.3333 0.1667  plane waves:    4052
 k-point 68 :  -0.4167 0.4167 0.1667  plane waves:    4031
 k-point 69 :  -0.3333 0.4167 0.1667  plane waves:    4054
 k-point 70 :  -0.2500 0.4167 0.1667  plane waves:    4047
 k-point 71 :  -0.3333 0.5000 0.1667  plane waves:    4054
 k-point 72 :  -0.2500 0.5000 0.2500  plane waves:    4056

 maximum and minimum number of plane-waves per node :      4056     3983

 maximum number of plane-waves:      4056
 maximum index in each direction: 
   IXMAX=   11   IYMAX=   11   IZMAX=   11
   IXMIN=  -11   IYMIN=  -11   IZMIN=  -11

 WARNING: aliasing errors must be expected set NGX to  46 to avoid them
 WARNING: aliasing errors must be expected set NGY to  46 to avoid them
 WARNING: aliasing errors must be expected set NGZ to  46 to avoid them
 aliasing errors are usually negligible using standard VASP settings
 and one can safely disregard these warnings

 serial   3D FFT for wavefunctions
 parallel 3D FFT for charge:
    minimum data exchange during FFTs selected (reduces bandwidth)


 total amount of memory used by VASP on root node    68062. kBytes
========================================================================

   base      :      30000. kBytes
   nonl-proj :      18819. kBytes
   fftplans  :       3408. kBytes
   grid      :       6448. kBytes
   one-center:          6. kBytes
   wavefun   :       9381. kBytes
 
     INWAV:  cpu time    0.00: real time    0.00
 Broyden mixing: mesh for mixing (old mesh)
   NGX = 23   NGY = 23   NGZ = 23
  (NGX  = 72   NGY  = 72   NGZ  = 72)
  gives a total of  12167 points

 initial charge density was supplied:
 charge density of overlapping atoms calculated
 number of electron       8.0000000 magnetization 
 keeping initial charge density in first step


--------------------------------------------------------------------------------------------------------


 Maximum index for augmentation-charges         3158 (set IRDMAX)


--------------------------------------------------------------------------------------------------------


 First call to EWALD:  gamma=   0.358
 Maximum number of real-space cells 3x 3x 3
 Maximum number of reciprocal cells 3x 3x 3

 FEWALD executed in parallel
    FEWALD:  cpu time    0.00: real time    0.00


----------------------------------------- Iteration    1(   1)  ---------------------------------------


    POTLOK:  cpu time    0.09: real time    0.09
    SETDIJ:  cpu time    0.00: real time    0.00
     EDDAV:  cpu time    1.07: real time    1.07
       DOS:  cpu time    0.00: real time    0.00
    --------------------------------------------
      LOOP:  cpu time    1.16: real time    1.16

 eigenvalue-minimisations  :  1152
 total energy-change (2. order) : 0.1122082E+02  (-0.2592803E+03)
 number of electron       8.0000000 magnetization 
 augmentation part        8.0000000 magnetization 

 Free energy of the ion-electron system (eV)
  ---------------------------------------------------
  alpha Z        PSCENC =         1.11259978
  Ewald energy   TEWEN  =      -158.06236426
  -Hartree energ DENC   =       -33.08195608
  -exchange      EXHF   =         0.00000000
  -V(xc)+E(xc)   XCENC  =       -21.46735563
  PAW double counting   =        65.95520812      -30.76852678
  entropy T*S    EENTRO =        -0.00263354
  eigenvalues    EBANDS =       -18.59727329
  atomic energy  EATOM  =       206.13311910
  ---------------------------------------------------
  free energy    TOTEN  =        11.22081741 eV

  energy without entropy =       11.22345095  energy(sigma->0) =       11.22213418


--------------------------------------------------------------------------------------------------------




----------------------------------------- Iteration    1(   2)  ---------------------------------------


     EDDAV:  cpu time    1.68: real time    1.69
       DOS:  cpu time    0.00: real time    0.00
    --------------------------------------------
      LOOP:  cpu time    1.68: real time    1.69

 eigenvalue-minimisations  :  2040
 total energy-change (2. order) :-0.1624384E+02  (-0.1609903E+02)
 number of electron       8.0000000 magnetization 
 augmentation part        8.0000000 magnetization 

 Free energy of the ion-electron system (eV)
  ---------------------------------------------------
  alpha Z        PSCENC =         1.11259978
  Ewald energy   TEWEN  =      -158.06236426
  -Hartree energ DENC   =       -33.08195608
  -exchange      EXHF   =         0.00000000
  -V(xc)+E(xc)   XCENC  =       -21.46735563
  PAW double counting   =        65.95520812      -30.76852678
  entropy T*S    EENTRO =        -0.00374935
  eigenvalues    EBANDS =       -34.84000081
  atomic energy  EATOM  =       206.13311910
  ---------------------------------------------------
  free energy    TOTEN  =        -5.02302593 eV

  energy without entropy =       -5.01927658  energy(sigma->0) =       -5.02115125


--------------------------------------------------------------------------------------------------------




----------------------------------------- Iteration    1(   3)  ---------------------------------------


     EDDAV:  cpu time    1.22: real time    1.22
       DOS:  cpu time    0.00: real time    0.00
    --------------------------------------------
      LOOP:  cpu time    1.22: real time    1.22

 eigenvalue-minimisations  :  1336
 total energy-change (2. order) :-0.5717998E+00  (-0.5698339E+00)
 number of electron       8.0000000 magnetization 
 augmentation part        8.0000000 magnetization 

 Free energy of the ion-electron system (eV)
  ---------------------------------------------------
  alpha Z        PSCENC =         1.11259978
  Ewald energy   TEWEN  =      -158.06236426
  -Hartree energ DENC   =       -33.08195608
  -exchange      EXHF   =         0.00000000
  -V(xc)+E(xc)   XCENC  =       -21.46735563
  PAW double counting   =        65.95520812      -30.76852678
  entropy T*S    EENTRO =        -0.00324202
  eigenvalues    EBANDS =       -35.41230793
  atomic energy  EATOM  =       206.13311910
  ---------------------------------------------------
  free energy    TOTEN  =        -5.59482571 eV

  energy without entropy =       -5.59158369  energy(sigma->0) =       -5.59320470


--------------------------------------------------------------------------------------------------------




----------------------------------------- Iteration    1(   4)  ---------------------------------------


     EDDAV:  cpu time    1.33: real time    1.34
       DOS:  cpu time    0.00: real time    0.00
    --------------------------------------------
      LOOP:  cpu time    1.33: real time    1.34

 eigenvalue-minimisations  :  1528
 total energy-change (2. order) :-0.6164630E-02  (-0.6164379E-02)
 number of electron       8.0000000 magnetization 
 augmentation part        8.0000000 magnetization 

 Free energy of the ion-electron system (eV)
  ---------------------------------------------------
  alpha Z        PSCENC =         1.11259978
  Ewald energy   TEWEN  =      -158.06236426
  -Hartree energ DENC   =       -33.08195608
  -exchange      EXHF   =         0.00000000
  -V(xc)+E(xc)   XCENC  =       -21.46735563
  PAW double counting   =        65.95520812      -30.76852678
  entropy T*S    EENTRO =        -0.00323376
  eigenvalues    EBANDS =       -35.41848082
  atomic energy  EATOM  =       206.13311910
  ---------------------------------------------------
  free energy    TOTEN  =        -5.60099034 eV

  energy without entropy =       -5.59775658  energy(sigma->0) =       -5.59937346


--------------------------------------------------------------------------------------------------------




----------------------------------------- Iteration    1(   5)  ---------------------------------------


     EDDAV:  cpu time    1.26: real time    1.27
       DOS:  cpu time    0.00: real time    0.00
    CHARGE:  cpu time    0.09: real time    0.09
    MIXING:  cpu time    0.00: real time    0.00
    --------------------------------------------
      LOOP:  cpu time    1.36: real time    1.37

 eigenvalue-minimisations  :  1408
 total energy-change (2. order) :-0.5144942E-04  (-0.5144889E-04)
 number of electron       8.0000001 magnetization 
 augmentation part       -0.5173618 magnetization 

 Broyden mixing:
  rms(total) = 0.10956E+00    rms(broyden)= 0.10956E+00
  rms(prec ) = 0.26361E+00
  weight for this iteration     100.00

 Free energy of the ion-electron system (eV)
  ---------------------------------------------------
  alpha Z        PSCENC =         1.11259978
  Ewald energy   TEWEN  =      -158.06236426
  -Hartree energ DENC   =       -33.08195608
  -exchange      EXHF   =         0.00000000
  -V(xc)+E(xc)   XCENC  =       -21.46735563
  PAW double counting   =        65.95520812      -30.76852678
  entropy T*S    EENTRO =        -0.00323342
  eigenvalues    EBANDS =       -35.41853261
  atomic energy  EATOM  =       206.13311910
  ---------------------------------------------------
  free energy    TOTEN  =        -5.60104179 eV

  energy without entropy =       -5.59780837  energy(sigma->0) =       -5.59942508


--------------------------------------------------------------------------------------------------------




----------------------------------------- Iteration    1(   6)  ---------------------------------------


    POTLOK:  cpu time    0.07: real time    0.07
    SETDIJ:  cpu time    0.00: real time    0.00
     EDDAV:  cpu time    1.10: real time    1.11
       DOS:  cpu time    0.00: real time    0.00
    CHARGE:  cpu time    0.09: real time    0.09
    MIXING:  cpu time    0.00: real time    0.00
    --------------------------------------------
      LOOP:  cpu time    1.27: real time    1.28

 eigenvalue-minimisations  :  1216
 total energy-change (2. order) :-0.4701063E-02  (-0.1272925E-02)
 number of electron       8.0000001 magnetization 
 augmentation part       -0.5214513 magnetization 

 Broyden mixing:
  rms(total) = 0.69594E-01    rms(broyden)= 0.69594E-01
  rms(prec ) = 0.16772E+00
  weight for this iteration     100.00

 eigenvalues of (default mixing * dielectric matrix)
  average eigenvalue GAMMA=   2.6863
  2.6863

 Free energy of the ion-electron system (eV)
  ---------------------------------------------------
  alpha Z        PSCENC =         1.11259978
  Ewald energy   TEWEN  =      -158.06236426
  -Hartree energ DENC   =       -32.69161093
  -exchange      EXHF   =         0.00000000
  -V(xc)+E(xc)   XCENC  =       -21.51436518
  PAW double counting   =        64.69423430      -29.46169777
  entropy T*S    EENTRO =        -0.00316987
  eigenvalues    EBANDS =       -35.81248802
  atomic energy  EATOM  =       206.13311910
  ---------------------------------------------------
  free energy    TOTEN  =        -5.60574285 eV

  energy without entropy =       -5.60257298  energy(sigma->0) =       -5.60415792


--------------------------------------------------------------------------------------------------------




----------------------------------------- Iteration    1(   7)  ---------------------------------------


    POTLOK:  cpu time    0.08: real time    0.08
    SETDIJ:  cpu time    0.00: real time    0.00
     EDDAV:  cpu time    1.18: real time    1.19
       DOS:  cpu time    0.00: real time    0.00
    CHARGE:  cpu time    0.09: real time    0.09
    MIXING:  cpu time    0.00: real time    0.00
    --------------------------------------------
      LOOP:  cpu time    1.35: real time    1.36

 eigenvalue-minimisations  :  1336
 total energy-change (2. order) :-0.5124506E-02  (-0.2801457E-02)
 number of electron       8.0000001 magnetization 
 augmentation part       -0.5283120 magnetization 

 Broyden mixing:
  rms(total) = 0.80239E-02    rms(broyden)= 0.80238E-02
  rms(prec ) = 0.24634E-01
  weight for this iteration     100.00

 eigenvalues of (default mixing * dielectric matrix)
  average eigenvalue GAMMA=   2.4638
  2.4638  2.4638

 Free energy of the ion-electron system (eV)
  ---------------------------------------------------
  alpha Z        PSCENC =         1.11259978
  Ewald energy   TEWEN  =      -158.06236426
  -Hartree energ DENC   =       -32.28204195
  -exchange      EXHF   =         0.00000000
  -V(xc)+E(xc)   XCENC  =       -21.56357119
  PAW double counting   =        62.98256372      -27.68874843
  entropy T*S    EENTRO =        -0.00311054
  eigenvalues    EBANDS =       -36.23931359
  atomic energy  EATOM  =       206.13311910
  ---------------------------------------------------
  free energy    TOTEN  =        -5.61086736 eV

  energy without entropy =       -5.60775682  energy(sigma->0) =       -5.60931209


--------------------------------------------------------------------------------------------------------




----------------------------------------- Iteration    1(   8)  ---------------------------------------


    POTLOK:  cpu time    0.05: real time    0.08
    SETDIJ:  cpu time    0.00: real time    0.00
     EDDAV:  cpu time    1.05: real time    1.10
       DOS:  cpu time    0.00: real time    0.00
    CHARGE:  cpu time    0.09: real time    0.09
    MIXING:  cpu time    0.00: real time    0.00
    --------------------------------------------
      LOOP:  cpu time    1.20: real time    1.27

 eigenvalue-minimisations  :  1200
 total energy-change (2. order) :-0.4555415E-04  (-0.1945283E-03)
 number of electron       8.0000001 magnetization 
 augmentation part       -0.5271151 magnetization 

 Broyden mixing:
  rms(total) = 0.30077E-02    rms(broyden)= 0.30077E-02
  rms(prec ) = 0.80077E-02
  weight for this iteration     100.00

 eigenvalues of (default mixing * dielectric matrix)
  average eigenvalue GAMMA=   2.0746
  1.1112  3.0028  2.1099

 Free energy of the ion-electron system (eV)
  ---------------------------------------------------
  alpha Z        PSCENC =         1.11259978
  Ewald energy   TEWEN  =      -158.06236426
  -Hartree energ DENC   =       -32.53579032
  -exchange      EXHF   =         0.00000000
  -V(xc)+E(xc)   XCENC  =       -21.54140846
  PAW double counting   =        63.45208112      -28.17971325
  entropy T*S    EENTRO =        -0.00310661
  eigenvalues    EBANDS =       -35.98633001
  atomic energy  EATOM  =       206.13311910
  ---------------------------------------------------
  free energy    TOTEN  =        -5.61091291 eV

  energy without entropy =       -5.60780630  energy(sigma->0) =       -5.60935961


--------------------------------------------------------------------------------------------------------




----------------------------------------- Iteration    1(   9)  ---------------------------------------


    POTLOK:  cpu time    0.05: real time    0.07
    SETDIJ:  cpu time    0.00: real time    0.00
     EDDAV:  cpu time    1.10: real time    1.15
       DOS:  cpu time    0.00: real time    0.00
    CHARGE:  cpu time    0.09: real time    0.10
    MIXING:  cpu time    0.00: real time    0.00
    --------------------------------------------
      LOOP:  cpu time    1.24: real time    1.33

 eigenvalue-minimisations  :  1280
 total energy-change (2. order) :-0.8782097E-04  (-0.7844791E-05)
 number of electron       8.0000001 magnetization 
 augmentation part       -0.5273344 magnetization 

 Broyden mixing:
  rms(total) = 0.11898E-02    rms(broyden)= 0.11898E-02
  rms(prec ) = 0.28773E-02
  weight for this iteration     100.00

 eigenvalues of (default mixing * dielectric matrix)
  average eigenvalue GAMMA=   2.3660
  0.9971  3.1174  3.1174  2.2320

 Free energy of the ion-electron system (eV)
  ---------------------------------------------------
  alpha Z        PSCENC =         1.11259978
  Ewald energy   TEWEN  =      -158.06236426
  -Hartree energ DENC   =       -32.55088435
  -exchange      EXHF   =         0.00000000
  -V(xc)+E(xc)   XCENC  =       -21.54050963
  PAW double counting   =        63.36336609      -28.08845914
  entropy T*S    EENTRO =        -0.00310302
  eigenvalues    EBANDS =       -35.97476531
  atomic energy  EATOM  =       206.13311910
  ---------------------------------------------------
  free energy    TOTEN  =        -5.61100074 eV

  energy without entropy =       -5.60789772  energy(sigma->0) =       -5.60944923


--------------------------------------------------------------------------------------------------------




----------------------------------------- Iteration    1(  10)  ---------------------------------------


    POTLOK:  cpu time    0.05: real time    0.08
    SETDIJ:  cpu time    0.00: real time    0.00
     EDDAV:  cpu time    1.06: real time    1.11
       DOS:  cpu time    0.00: real time    0.00
    CHARGE:  cpu time    0.09: real time    0.09
    MIXING:  cpu time    0.00: real time    0.01
    --------------------------------------------
      LOOP:  cpu time    1.21: real time    1.28

 eigenvalue-minimisations  :  1216
 total energy-change (2. order) :-0.4726341E-04  (-0.7028455E-05)
 number of electron       8.0000001 magnetization 
 augmentation part       -0.5272787 magnetization 

 Broyden mixing:
  rms(total) = 0.24246E-03    rms(broyden)= 0.24246E-03
  rms(prec ) = 0.55407E-03
  weight for this iteration     100.00

 eigenvalues of (default mixing * dielectric matrix)
  average eigenvalue GAMMA=   2.1510
  3.6274  2.7075  2.2623  1.0790  1.0790

 Free energy of the ion-electron system (eV)
  ---------------------------------------------------
  alpha Z        PSCENC =         1.11259978
  Ewald energy   TEWEN  =      -158.06236426
  -Hartree energ DENC   =       -32.56781825
  -exchange      EXHF   =         0.00000000
  -V(xc)+E(xc)   XCENC  =       -21.53876041
  PAW double counting   =        63.29186982      -28.01454462
  entropy T*S    EENTRO =        -0.00309988
  eigenvalues    EBANDS =       -35.96204927
  atomic energy  EATOM  =       206.13311910
  ---------------------------------------------------
  free energy    TOTEN  =        -5.61104800 eV

  energy without entropy =       -5.60794812  energy(sigma->0) =       -5.60949806


--------------------------------------------------------------------------------------------------------




----------------------------------------- Iteration    1(  11)  ---------------------------------------


    POTLOK:  cpu time    0.05: real time    0.07
    SETDIJ:  cpu time    0.00: real time    0.00
     EDDAV:  cpu time    1.36: real time    1.41
       DOS:  cpu time    0.00: real time    0.00
    CHARGE:  cpu time    0.09: real time    0.09
    MIXING:  cpu time    0.00: real time    0.00
    --------------------------------------------
      LOOP:  cpu time    1.50: real time    1.58

 eigenvalue-minimisations  :  1680
 total energy-change (2. order) :-0.1025282E-05  (-0.8943084E-07)
 number of electron       8.0000001 magnetization 
 augmentation part       -0.5272921 magnetization 

 Broyden mixing:
  rms(total) = 0.10438E-03    rms(broyden)= 0.10438E-03
  rms(prec ) = 0.22288E-03
  weight for this iteration     100.00

 eigenvalues of (default mixing * dielectric matrix)
  average eigenvalue GAMMA=   2.2798
  3.8661  3.0672  2.4755  2.2832  0.9935  0.9935

 Free energy of the ion-electron system (eV)
  ---------------------------------------------------
  alpha Z        PSCENC =         1.11259978
  Ewald energy   TEWEN  =      -158.06236426
  -Hartree energ DENC   =       -32.57054165
  -exchange      EXHF   =         0.00000000
  -V(xc)+E(xc)   XCENC  =       -21.53842842
  PAW double counting   =        63.29724902      -28.02014934
  entropy T*S    EENTRO =        -0.00309969
  eigenvalues    EBANDS =       -35.95943357
  atomic energy  EATOM  =       206.13311910
  ---------------------------------------------------
  free energy    TOTEN  =        -5.61104902 eV

  energy without entropy =       -5.60794933  energy(sigma->0) =       -5.60949918


--------------------------------------------------------------------------------------------------------




----------------------------------------- Iteration    1(  12)  ---------------------------------------


    POTLOK:  cpu time    0.05: real time    0.08
    SETDIJ:  cpu time    0.00: real time    0.00
     EDDAV:  cpu time    1.02: real time    1.07
       DOS:  cpu time    0.00: real time    0.00
    CHARGE:  cpu time    0.09: real time    0.09
    MIXING:  cpu time    0.00: real time    0.00
    --------------------------------------------
      LOOP:  cpu time    1.16: real time    1.25

 eigenvalue-minimisations  :  1152
 total energy-change (2. order) :-0.8855965E-06  (-0.6978844E-07)
 number of electron       8.0000001 magnetization 
 augmentation part       -0.5272837 magnetization 

 Broyden mixing:
  rms(total) = 0.21454E-04    rms(broyden)= 0.21454E-04
  rms(prec ) = 0.49282E-04
  weight for this iteration     100.00

 eigenvalues of (default mixing * dielectric matrix)
  average eigenvalue GAMMA=   2.1933
  3.9223  3.0051  2.8295  2.1386  0.9940  0.9940  1.4696

 Free energy of the ion-electron system (eV)
  ---------------------------------------------------
  alpha Z        PSCENC =         1.11259978
  Ewald energy   TEWEN  =      -158.06236426
  -Hartree energ DENC   =       -32.57121479
  -exchange      EXHF   =         0.00000000
  -V(xc)+E(xc)   XCENC  =       -21.53820952
  PAW double counting   =        63.30577931      -28.02894002
  entropy T*S    EENTRO =        -0.00309971
  eigenvalues    EBANDS =       -35.95871980
  atomic energy  EATOM  =       206.13311910
  ---------------------------------------------------
  free energy    TOTEN  =        -5.61104991 eV

  energy without entropy =       -5.60795020  energy(sigma->0) =       -5.60950006


--------------------------------------------------------------------------------------------------------




----------------------------------------- Iteration    1(  13)  ---------------------------------------


    POTLOK:  cpu time    0.05: real time    0.07
    SETDIJ:  cpu time    0.00: real time    0.00
     EDDAV:  cpu time    1.30: real time    1.35
       DOS:  cpu time    0.00: real time    0.00
    CHARGE:  cpu time    0.09: real time    0.09
    MIXING:  cpu time    0.00: real time    0.00
    --------------------------------------------
      LOOP:  cpu time    1.45: real time    1.53

 eigenvalue-minimisations  :  1568
 total energy-change (2. order) : 0.6606192E-07  (-0.1419654E-08)
 number of electron       8.0000001 magnetization 
 augmentation part       -0.5272870 magnetization 

 Broyden mixing:
  rms(total) = 0.45430E-05    rms(broyden)= 0.45430E-05
  rms(prec ) = 0.11913E-04
  weight for this iteration     100.00

 eigenvalues of (default mixing * dielectric matrix)
  average eigenvalue GAMMA=   2.2195
  3.9891  3.0598  3.0598  2.4263  2.2276  1.0191  1.0191  0.9553

 Free energy of the ion-electron system (eV)
  ---------------------------------------------------
  alpha Z        PSCENC =         1.11259978
  Ewald energy   TEWEN  =      -158.06236426
  -Hartree energ DENC   =       -32.57086653
  -exchange      EXHF   =         0.00000000
  -V(xc)+E(xc)   XCENC  =       -21.53823884
  PAW double counting   =        63.30453818      -28.02765237
  entropy T*S    EENTRO =        -0.00309970
  eigenvalues    EBANDS =       -35.95908520
  atomic energy  EATOM  =       206.13311910
  ---------------------------------------------------
  free energy    TOTEN  =        -5.61104984 eV

  energy without entropy =       -5.60795015  energy(sigma->0) =       -5.60949999


--------------------------------------------------------------------------------------------------------




----------------------------------------- Iteration    1(  14)  ---------------------------------------


    POTLOK:  cpu time    0.05: real time    0.09
    SETDIJ:  cpu time    0.00: real time    0.00
     EDDAV:  cpu time    1.02: real time    1.06
       DOS:  cpu time    0.00: real time    0.00
    CHARGE:  cpu time    0.09: real time    0.09
    MIXING:  cpu time    0.00: real time    0.00
    --------------------------------------------
      LOOP:  cpu time    1.17: real time    1.25

 eigenvalue-minimisations  :  1152
 total energy-change (2. order) : 0.1386687E-07  (-0.1858192E-09)
 number of electron       8.0000001 magnetization 
 augmentation part       -0.5272865 magnetization 

 Broyden mixing:
  rms(total) = 0.13459E-05    rms(broyden)= 0.13459E-05
  rms(prec ) = 0.32108E-05
  weight for this iteration     100.00

 eigenvalues of (default mixing * dielectric matrix)
  average eigenvalue GAMMA=   2.0922
  3.9534  3.1310  2.7302  2.7302  2.1747  1.0048  1.0048  0.9362  1.1642

 Free energy of the ion-electron system (eV)
  ---------------------------------------------------
  alpha Z        PSCENC =         1.11259978
  Ewald energy   TEWEN  =      -158.06236426
  -Hartree energ DENC   =       -32.57097815
  -exchange      EXHF   =         0.00000000
  -V(xc)+E(xc)   XCENC  =       -21.53823478
  PAW double counting   =        63.30414112      -28.02724872
  entropy T*S    EENTRO =        -0.00309970
  eigenvalues    EBANDS =       -35.95898423
  atomic energy  EATOM  =       206.13311910
  ---------------------------------------------------
  free energy    TOTEN  =        -5.61104983 eV

  energy without entropy =       -5.60795013  energy(sigma->0) =       -5.60949998


--------------------------------------------------------------------------------------------------------




----------------------------------------- Iteration    1(  15)  ---------------------------------------


    POTLOK:  cpu time    0.05: real time    0.07
    SETDIJ:  cpu time    0.00: real time    0.00
     EDDAV:  cpu time    0.76: real time    0.76
       DOS:  cpu time    0.00: real time    0.00
    CHARGE:  cpu time    0.09: real time    0.09
    MIXING:  cpu time    0.00: real time    0.00
    --------------------------------------------
      LOOP:  cpu time    0.91: real time    0.93

 eigenvalue-minimisations  :   680
 total energy-change (2. order) : 0.1005162E-08  (-0.2782021E-11)
 number of electron       8.0000001 magnetization 
 augmentation part       -0.5272864 magnetization 

 Broyden mixing:
  rms(total) = 0.19048E-06    rms(broyden)= 0.19048E-06
  rms(prec ) = 0.37662E-06
  weight for this iteration     100.00

 eigenvalues of (default mixing * dielectric matrix)
  average eigenvalue GAMMA=   2.1267
  3.9664  3.1268  2.7953  2.7953  2.1848  2.4147  1.0246  1.0246  0.9767  0.9575

 Free energy of the ion-electron system (eV)
  ---------------------------------------------------
  alpha Z        PSCENC =         1.11259978
  Ewald energy   TEWEN  =      -158.06236426
  -Hartree energ DENC   =       -32.57098903
  -exchange      EXHF   =         0.00000000
  -V(xc)+E(xc)   XCENC  =       -21.53823468
  PAW double counting   =        63.30411621      -28.02722328
  entropy T*S    EENTRO =        -0.00309969
  eigenvalues    EBANDS =       -35.95897396
  atomic energy  EATOM  =       206.13311910
  ---------------------------------------------------
  free energy    TOTEN  =        -5.61104983 eV

  energy without entropy =       -5.60795013  energy(sigma->0) =       -5.60949998


--------------------------------------------------------------------------------------------------------




----------------------------------------- Iteration    1(  16)  ---------------------------------------


    POTLOK:  cpu time    0.08: real time    0.07
    SETDIJ:  cpu time    0.00: real time    0.00
     EDDAV:  cpu time    0.70: real time    0.70
       DOS:  cpu time    0.00: real time    0.00
    CHARGE:  cpu time    0.09: real time    0.09
    MIXING:  cpu time    0.00: real time    0.00
    --------------------------------------------
      LOOP:  cpu time    0.87: real time    0.87

 eigenvalue-minimisations  :   576
 total energy-change (2. order) :-0.4743015E-09  (-0.8024594E-12)
 number of electron       8.0000001 magnetization 
 augmentation part       -0.5272864 magnetization 

 Broyden mixing:
  rms(total) = 0.44714E-07    rms(broyden)= 0.44713E-07
  rms(prec ) = 0.85522E-07
  weight for this iteration     100.00

 eigenvalues of (default mixing * dielectric matrix)
  average eigenvalue GAMMA=   2.0436
  3.9675  3.0146  3.0146  2.6512  2.6512  2.1870  1.0497  1.0497  0.9836  0.9552
  0.9552

 Free energy of the ion-electron system (eV)
  ---------------------------------------------------
  alpha Z        PSCENC =         1.11259978
  Ewald energy   TEWEN  =      -158.06236426
  -Hartree energ DENC   =       -32.57098751
  -exchange      EXHF   =         0.00000000
  -V(xc)+E(xc)   XCENC  =       -21.53823488
  PAW double counting   =        63.30413048      -28.02723766
  entropy T*S    EENTRO =        -0.00309969
  eigenvalues    EBANDS =       -35.95897518
  atomic energy  EATOM  =       206.13311910
  ---------------------------------------------------
  free energy    TOTEN  =        -5.61104983 eV

  energy without entropy =       -5.60795013  energy(sigma->0) =       -5.60949998


--------------------------------------------------------------------------------------------------------




----------------------------------------- Iteration    1(  17)  ---------------------------------------


    POTLOK:  cpu time    0.08: real time    0.08
    SETDIJ:  cpu time    0.00: real time    0.00
     EDDAV:  cpu time    0.70: real time    0.70
       DOS:  cpu time    0.00: real time    0.00
    CHARGE:  cpu time    0.09: real time    0.09
    MIXING:  cpu time    0.00: real time    0.00
    --------------------------------------------
      LOOP:  cpu time    0.87: real time    0.87

 eigenvalue-minimisations  :   576
 total energy-change (2. order) :-0.2551133E-09  (-0.2265771E-13)
 number of electron       8.0000001 magnetization 
 augmentation part       -0.5272864 magnetization 

 Broyden mixing:
  rms(total) = 0.24430E-07    rms(broyden)= 0.24427E-07
  rms(prec ) = 0.48725E-07
  weight for this iteration     100.00

 eigenvalues of (default mixing * dielectric matrix)
  average eigenvalue GAMMA=   2.0589
  3.9601  3.0521  2.9644  2.8852  2.5927  2.2098  2.0974  1.0584  0.9853  0.9853
  0.9657  0.9505

 Free energy of the ion-electron system (eV)
  ---------------------------------------------------
  alpha Z        PSCENC =         1.11259978
  Ewald energy   TEWEN  =      -158.06236426
  -Hartree energ DENC   =       -32.57098754
  -exchange      EXHF   =         0.00000000
  -V(xc)+E(xc)   XCENC  =       -21.53823481
  PAW double counting   =        63.30414004      -28.02724744
  entropy T*S    EENTRO =        -0.00309969
  eigenvalues    EBANDS =       -35.95897500
  atomic energy  EATOM  =       206.13311910
  ---------------------------------------------------
  free energy    TOTEN  =        -5.61104983 eV

  energy without entropy =       -5.60795013  energy(sigma->0) =       -5.60949998


--------------------------------------------------------------------------------------------------------




----------------------------------------- Iteration    1(  18)  ---------------------------------------


    POTLOK:  cpu time    0.08: real time    0.08
    SETDIJ:  cpu time    0.00: real time    0.00
     EDDAV:  cpu time    0.70: real time    0.70
       DOS:  cpu time    0.00: real time    0.00
    --------------------------------------------
      LOOP:  cpu time    0.79: real time    0.79

 eigenvalue-minimisations  :   576
 total energy-change (2. order) : 0.2449951E-10  (-0.1059707E-12)
 number of electron       8.0000001 magnetization 
 augmentation part       -0.5272864 magnetization 

 Free energy of the ion-electron system (eV)
  ---------------------------------------------------
  alpha Z        PSCENC =         1.11259978
  Ewald energy   TEWEN  =      -158.06236426
  -Hartree energ DENC   =       -32.57098718
  -exchange      EXHF   =         0.00000000
  -V(xc)+E(xc)   XCENC  =       -21.53823483
  PAW double counting   =        63.30413798      -28.02724531
  entropy T*S    EENTRO =        -0.00309969
  eigenvalues    EBANDS =       -35.95897541
  atomic energy  EATOM  =       206.13311910
  ---------------------------------------------------
  free energy    TOTEN  =        -5.61104983 eV

  energy without entropy =       -5.60795013  energy(sigma->0) =       -5.60949998


--------------------------------------------------------------------------------------------------------




 average (electrostatic) potential at core
  the test charge radii are     0.9892
  (the norm of the test charge is              1.0000)
       1 -91.3400       2 -91.3400
 
 
 
 E-fermi :  -1.1591     XC(G=0):  -5.6524     alpha+bet : -3.9636


 k-point     1 :       0.0000    0.0000    0.0000
  band No.  band energies     occupation 
      1      -8.4839      2.00000
      2      -5.5447      2.00000
      3      -1.0449      0.02055
      4      -1.0449      0.02055
      5      -1.0449      0.02055
      6       0.5243      0.00000
      7       0.5243      0.00000
      8       0.5243      0.00000

 k-point     2 :       0.0833    0.0000    0.0000
  band No.  band energies     occupation 
      1      -8.4564      2.00000
      2      -5.6067      2.00000
      3      -1.0831      0.09126
      4      -1.0831      0.09126
      5      -1.0691      0.05323
      6       0.5693      0.00000
      7       0.5803      0.00000
      8       0.5803      0.00000

 k-point     3 :       0.1667    0.0000    0.0000
  band No.  band energies     occupation 
      1      -8.3763      2.00000
      2      -5.7773      2.00000
      3      -1.1759      1.32410
      4      -1.1759      1.32410
      5      -1.1490      0.80092
      6       0.7196      0.00000
      7       0.7196      0.00000
      8       0.7313      0.00000

 k-point     4 :       0.2500    0.0000    0.0000
  band No.  band energies     occupation 
      1      -8.2516      2.00000
      2      -6.0180      2.00000
      3      -1.2834      1.98623
      4      -1.2834      1.98623
      5      -1.2731      1.97924
      6       0.8843      0.00000
      7       0.8843      0.00000
      8       1.0245      0.00000

 k-point     5 :       0.3333    0.0000    0.0000
  band No.  band energies     occupation 
      1      -8.1004      2.00000
      2      -6.2777      2.00000
      3      -1.3995      1.99987
      4      -1.3757      1.99965
      5      -1.3757      1.99965
      6       1.0248      0.00000
      7       1.0248      0.00000
      8       1.3930      0.00000

 k-point     6 :       0.4167    0.0000    0.0000
  band No.  band energies     occupation 
      1      -7.9610      2.00000
      2      -6.4926      2.00000
      3      -1.4897      2.00000
      4      -1.4362      1.99997
      5      -1.4362      1.99997
      6       1.1139      0.00000
      7       1.1139      0.00000
      8       1.7231      0.00000

 k-point     7 :       0.5000    0.0000    0.0000
  band No.  band energies     occupation 
      1      -7.8997      2.00000
      2      -6.5808      2.00000
      3      -1.5220      2.00000
      4      -1.4572      1.99999
      5      -1.4572      1.99999
      6       1.1437      0.00000
      7       1.1437      0.00000
      8       1.8620      0.00000

 k-point     8 :       0.0833    0.0833    0.0000
  band No.  band energies     occupation 
      1      -8.4471      2.00000
      2      -5.6270      2.00000
      3      -1.1429      0.68739
      4      -1.1429      0.68739
      5      -0.9695      0.00102
      6       0.4445      0.00000
      7       0.6626      0.00000
      8       0.6626      0.00000

 k-point     9 :       0.1667    0.0833    0.0000
  band No.  band energies     occupation 
      1      -8.3840      2.00000
      2      -5.7607      2.00000
      3      -1.2598      1.96495
      4      -1.2468      1.94188
      5      -0.9323      0.00023
      6       0.4399      0.00000
      7       0.8193      0.00000
      8       0.8318      0.00000

 k-point    10 :       0.2500    0.0833    0.0000
  band No.  band energies     occupation 
      1      -8.2730      2.00000
      2      -5.9772      2.00000
      3      -1.4213      1.99994
      4      -1.3552      1.99921
      5      -0.9579      0.00064
      6       0.5693      0.00000
      7       0.9919      0.00000
      8       1.0735      0.00000

 k-point    11 :       0.3333    0.0833    0.0000
  band No.  band energies     occupation 
      1      -8.1276      2.00000
      2      -6.2310      2.00000
      3      -1.5861      2.00000
      4      -1.4410      1.99997
      5      -1.0209      0.00792
      6       0.7708      0.00000
      7       1.1312      0.00000
      8       1.3644      0.00000

 k-point    12 :       0.4167    0.0833    0.0000
  band No.  band energies     occupation 
      1      -7.9774      2.00000
      2      -6.4654      2.00000
      3      -1.7152      2.00000
      4      -1.4901      2.00000
      5      -1.0869      0.10546
      6       0.9535      0.00000
      7       1.2091      0.00000
      8       1.6582      0.00000

 k-point    13 :       0.5000    0.0833    0.0000
  band No.  band energies     occupation 
      1      -7.8810      2.00000
      2      -6.6036      2.00000
      3      -1.7861      2.00000
      4      -1.4967      2.00000
      5      -1.1309      0.48945
      6       1.0676      0.00000
      7       1.2189      0.00000
      8       1.8436      0.00000

 k-point    14 :      -0.4167    0.0833    0.0000
  band No.  band energies     occupation 
      1      -7.9029      2.00000
      2      -6.5730      2.00000
      3      -1.7890      2.00000
      4      -1.4605      1.99999
      5      -1.1413      0.65885
      6       1.1015      0.00000
      7       1.1652      0.00000
      8       1.7995      0.00000

 k-point    15 :      -0.3333    0.0833    0.0000
  band No.  band energies     occupation 
      1      -8.0260      2.00000
      2      -6.3924      2.00000
      3      -1.7240      2.00000
      4      -1.3864      1.99978
      5      -1.1181      0.32432
      6       1.0435      0.00000
      7       1.0547      0.00000
      8       1.5608      0.00000

 k-point    16 :      -0.2500    0.0833    0.0000
  band No.  band energies     occupation 
      1      -8.1793      2.00000
      2      -6.1441      2.00000
      3      -1.5988      2.00000
      4      -1.2854      1.98729
      5      -1.0740      0.06430
      6       0.8826      0.00000
      7       0.9009      0.00000
      8       1.2803      0.00000

 k-point    17 :      -0.1667    0.0833    0.0000
  band No.  band energies     occupation 
      1      -8.3154      2.00000
      2      -5.8974      2.00000
      3      -1.4299      1.99996
      4      -1.1781      1.36167
      5      -1.0369      0.01493
      6       0.6863      0.00000
      7       0.7352      0.00000
      8       1.0277      0.00000

 k-point    18 :      -0.0833    0.0833    0.0000
  band No.  band energies     occupation 
      1      -8.4112      2.00000
      2      -5.7045      2.00000
      3      -1.2441      1.93543
      4      -1.0980      0.15984
      5      -1.0361      0.01446
      6       0.5724      0.00000
      7       0.6100      0.00000
      8       0.7875      0.00000

 k-point    19 :       0.1667    0.1667    0.0000
  band No.  band energies     occupation 
      1      -8.3379      2.00000
      2      -5.8520      2.00000
      3      -1.3570      1.99927
      4      -1.3570      1.99927
      5      -0.7770      0.00000
      6       0.2611      0.00000
      7       0.9931      0.00000
      8       0.9931      0.00000

 k-point    20 :       0.2500    0.1667    0.0000
  band No.  band energies     occupation 
      1      -8.2418      2.00000
      2      -6.0315      2.00000
      3      -1.5029      2.00000
      4      -1.4675      1.99999
      5      -0.7009      0.00000
      6       0.2482      0.00000
      7       1.1822      0.00000
      8       1.2090      0.00000

 k-point    21 :       0.3333    0.1667    0.0000
  band No.  band energies     occupation 
      1      -8.1053      2.00000
      2      -6.2628      2.00000
      3      -1.6886      2.00000
      4      -1.5520      2.00000
      5      -0.6915      0.00000
      6       0.3972      0.00000
      7       1.3346      0.00000
      8       1.4469      0.00000

 k-point    22 :       0.4167    0.1667    0.0000
  band No.  band energies     occupation 
      1      -7.9505      2.00000
      2      -6.4986      2.00000
      3      -1.8614      2.00000
      4      -1.5967      2.00000
      5      -0.7263      0.00000
      6       0.6344      0.00000
      7       1.4167      0.00000
      8       1.6634      0.00000

 k-point    23 :       0.5000    0.1667    0.0000
  band No.  band energies     occupation 
      1      -7.8253      2.00000
      2      -6.6722      2.00000
      3      -1.9806      2.00000
      4      -1.5960      2.00000
      5      -0.7709      0.00000
      6       0.8567      0.00000
      7       1.4181      0.00000
      8       1.8129      0.00000

 k-point    24 :      -0.4167    0.1667    0.0000
  band No.  band energies     occupation 
      1      -7.8063      2.00000
      2      -6.6975      2.00000
      3      -2.0256      2.00000
      4      -1.5507      2.00000
      5      -0.8053      0.00000
      6       0.9897      0.00000
      7       1.3447      0.00000
      8       1.8224      0.00000

 k-point    25 :      -0.3333    0.1667    0.0000
  band No.  band energies     occupation 
      1      -7.9092      2.00000
      2      -6.5575      2.00000
      3      -1.9880      2.00000
      4      -1.4672      1.99999
      5      -0.8287      0.00000
      6       0.9970      0.00000
      7       1.2095      0.00000
      8       1.6821      0.00000

 k-point    26 :      -0.2500    0.1667    0.0000
  band No.  band energies     occupation 
      1      -8.0619      2.00000
      2      -6.3321      2.00000
      3      -1.8685      2.00000
      4      -1.3592      1.99933
      5      -0.8590      0.00001
      6       0.8815      0.00000
      7       1.0340      0.00000
[...]
      8       1.9224      0.00000

 k-point    37 :       0.5000    0.3333    0.0000
  band No.  band energies     occupation 
      1      -7.6098      2.00000
      2      -6.9340      2.00000
      3      -2.0384      2.00000
      4      -1.8221      2.00000
      5      -0.3077      0.00000
      6       0.1979      0.00000
      7       1.9345      0.00000
      8       1.9648      0.00000

 k-point    38 :      -0.4167    0.3333    0.0000
  band No.  band energies     occupation 
      1      -7.5196      2.00000
      2      -7.0363      2.00000
      3      -2.1648      2.00000
      4      -1.7796      2.00000
      5      -0.3496      0.00000
      6       0.5205      0.00000
      7       1.8452      0.00000
      8       1.9163      0.00000

 k-point    39 :      -0.3333    0.3333    0.0000
  band No.  band energies     occupation 
      1      -7.6031      2.00000
      2      -6.9407      2.00000
      3      -2.2108      2.00000
      4      -1.6949      2.00000
      5      -0.4319      0.00000
      6       0.7915      0.00000
      7       1.6655      0.00000
      8       1.8191      0.00000

 k-point    40 :       0.4167    0.4167    0.0000
  band No.  band energies     occupation 
      1      -7.6245      2.00000
      2      -6.9180      2.00000
      3      -1.8784      2.00000
      4      -1.8784      2.00000
      5      -0.2635      0.00000
      6      -0.1736      0.00000
      7       2.0743      0.00000
      8       2.0743      0.00000

 k-point    41 :       0.5000    0.4167    0.0000
  band No.  band energies     occupation 
      1      -7.4577      2.00000
      2      -7.1065      2.00000
      3      -1.9620      2.00000
      4      -1.8932      2.00000
      5      -0.2374      0.00000
      6      -0.0965      0.00000
      7       2.1183      0.00000
      8       2.1187      0.00000

 k-point    42 :      -0.4167    0.4167    0.0000
  band No.  band energies     occupation 
      1      -7.3711      2.00000
      2      -7.1973      2.00000
      3      -2.0847      2.00000
      4      -1.8586      2.00000
      5      -0.2671      0.00000
      6       0.1840      0.00000
      7       2.0353      0.00000
      8       2.0444      0.00000

 k-point    43 :       0.5000    0.5000    0.0000
  band No.  band energies     occupation 
      1      -7.2861      2.00000
      2      -7.2861      2.00000
      3      -1.9180      2.00000
      4      -1.9180      2.00000
      5      -0.2189      0.00000
      6      -0.2189      0.00000
      7       2.1859      0.00000
      8       2.1859      0.00000

 k-point    44 :       0.2500    0.1667    0.0833
  band No.  band energies     occupation 
      1      -8.3047      2.00000
      2      -5.9166      2.00000
      3      -1.4608      1.99999
      4      -1.2983      1.99239
      5      -0.8554      0.00001
      6       0.4204      0.00000
      7       0.9401      0.00000
      8       1.0817      0.00000

 k-point    45 :       0.3333    0.1667    0.0833
  band No.  band energies     occupation 
      1      -8.1807      2.00000
      2      -6.1392      2.00000
      3      -1.6601      2.00000
      4      -1.3828      1.99974
      5      -0.8272      0.00000
      6       0.5382      0.00000
      7       1.1044      0.00000
      8       1.3202      0.00000

 k-point    46 :       0.4167    0.1667    0.0833
  band No.  band energies     occupation 
      1      -8.0290      2.00000
      2      -6.3837      2.00000
      3      -1.8229      2.00000
      4      -1.4710      1.99999
      5      -0.8395      0.00001
      6       0.7381      0.00000
      7       1.2456      0.00000
      8       1.5451      0.00000

 k-point    47 :       0.5000    0.1667    0.0833
  band No.  band energies     occupation 
      1      -7.8864      2.00000
      2      -6.5910      2.00000
      3      -1.9286      2.00000
      4      -1.5330      2.00000
      5      -0.8635      0.00001
      6       0.9183      0.00000
      7       1.3140      0.00000
      8       1.7502      0.00000

 k-point    48 :      -0.4167    0.1667    0.0833
  band No.  band energies     occupation 
      1      -7.8224      2.00000
      2      -6.6781      2.00000
      3      -1.9651      2.00000
      4      -1.5548      2.00000
      5      -0.8744      0.00002
      6       0.9905      0.00000
      7       1.3285      0.00000
      8       1.8429      0.00000

 k-point    49 :       0.3333    0.2500    0.0833
  band No.  band energies     occupation 
      1      -8.1315      2.00000
      2      -6.2192      2.00000
      3      -1.6805      2.00000
      4      -1.5393      2.00000
      5      -0.5996      0.00000
      6       0.2330      0.00000
      7       1.3551      0.00000
      8       1.4256      0.00000

 k-point    50 :       0.4167    0.2500    0.0833
  band No.  band energies     occupation 
      1      -7.9857      2.00000
      2      -6.4446      2.00000
      3      -1.8608      2.00000
      4      -1.6156      2.00000
      5      -0.5472      0.00000
      6       0.3716      0.00000
      7       1.5002      0.00000
      8       1.6065      0.00000

 k-point    51 :       0.5000    0.2500    0.0833
  band No.  band energies     occupation 
      1      -7.8312      2.00000
      2      -6.6604      2.00000
      3      -2.0076      2.00000
      4      -1.6665      2.00000
      5      -0.5445      0.00000
      6       0.6010      0.00000
      7       1.5588      0.00000
      8       1.7505      0.00000

 k-point    52 :      -0.4167    0.2500    0.0833
  band No.  band energies     occupation 
      1      -7.7294      2.00000
      2      -6.7920      2.00000
      3      -2.0950      2.00000
      4      -1.6716      2.00000
      5      -0.5637      0.00000
      6       0.8006      0.00000
      7       1.5402      0.00000
      8       1.8220      0.00000

 k-point    53 :      -0.3333    0.2500    0.0833
  band No.  band energies     occupation 
      1      -7.7584      2.00000
      2      -6.7552      2.00000
      3      -2.1059      2.00000
      4      -1.6293      2.00000
      5      -0.5883      0.00000
      6       0.8613      0.00000
      7       1.4803      0.00000
      8       1.7805      0.00000

 k-point    54 :      -0.2500    0.2500    0.0833
  band No.  band energies     occupation 
      1      -7.8917      2.00000
      2      -6.5785      2.00000
      3      -2.0336      2.00000
      4      -1.5492      2.00000
      5      -0.6271      0.00000
      6       0.7631      0.00000
      7       1.3936      0.00000
      8       1.6570      0.00000

 k-point    55 :      -0.1667    0.2500    0.0833
  band No.  band energies     occupation 
      1      -8.0473      2.00000
      2      -6.3530      2.00000
      3      -1.8805      2.00000
      4      -1.4538      1.99998
      5      -0.7050      0.00000
      6       0.6162      0.00000
      7       1.2532      0.00000
      8       1.5129      0.00000

 k-point    56 :       0.4167    0.3333    0.0833
  band No.  band energies     occupation 
      1      -7.8977      2.00000
      2      -6.5686      2.00000
      3      -1.8490      2.00000
      4      -1.7453      2.00000
      5      -0.3681      0.00000
      6       0.0767      0.00000
      7       1.7440      0.00000
      8       1.7458      0.00000

 k-point    57 :       0.5000    0.3333    0.0833
  band No.  band energies     occupation 
      1      -7.7386      2.00000
      2      -6.7777      2.00000
      3      -1.9976      2.00000
      4      -1.7984      2.00000
      5      -0.3089      0.00000
      6       0.2442      0.00000
      7       1.8026      0.00000
      8       1.8527      0.00000

 k-point    58 :      -0.4167    0.3333    0.0833
  band No.  band energies     occupation 
      1      -7.6053      2.00000
      2      -6.9385      2.00000
      3      -2.1245      2.00000
      4      -1.7990      2.00000
      5      -0.3152      0.00000
      6       0.5123      0.00000
      7       1.7751      0.00000
      8       1.8677      0.00000

 k-point    59 :      -0.3333    0.3333    0.0833
  band No.  band energies     occupation 
      1      -7.6031      2.00000
      2      -6.9408      2.00000
      3      -2.1857      2.00000
      4      -1.7473      2.00000
      5      -0.3620      0.00000
      6       0.7300      0.00000
      7       1.6780      0.00000
      8       1.8120      0.00000

 k-point    60 :      -0.2500    0.3333    0.0833
  band No.  band energies     occupation 
      1      -7.7336      2.00000
      2      -6.7837      2.00000
      3      -2.1576      2.00000
      4      -1.6557      2.00000
      5      -0.4592      0.00000
      6       0.7972      0.00000
      7       1.5502      0.00000
      8       1.7283      0.00000

 k-point    61 :       0.5000    0.4167    0.0833
  band No.  band energies     occupation 
      1      -7.6120      2.00000
      2      -6.9318      2.00000
      3      -1.9441      2.00000
      4      -1.8893      2.00000
      5      -0.2101      0.00000
      6      -0.0339      0.00000
      7       1.9911      0.00000
      8       2.0234      0.00000

 k-point    62 :      -0.4167    0.4167    0.0833
  band No.  band energies     occupation 
      1      -7.4551      2.00000
      2      -7.1076      2.00000
      3      -2.0627      2.00000
      4      -1.9008      2.00000
      5      -0.1739      0.00000
      6       0.1741      0.00000
      7       1.9699      0.00000
      8       2.0025      0.00000

 k-point    63 :      -0.3333    0.4167    0.0833
  band No.  band energies     occupation 
      1      -7.4507      2.00000
      2      -7.1113      2.00000
      3      -2.1641      2.00000
      4      -1.8457      2.00000
      5      -0.2291      0.00000
      6       0.4835      0.00000
      7       1.8556      0.00000
      8       1.9020      0.00000

 k-point    64 :      -0.4167    0.5000    0.0833
  band No.  band energies     occupation 
      1      -7.2854      2.00000
      2      -7.2854      2.00000
      3      -1.9576      2.00000
      4      -1.9576      2.00000
      5      -0.1151      0.00000
      6      -0.1151      0.00000
      7       2.1075      0.00000
      8       2.1075      0.00000

 k-point    65 :       0.5000    0.3333    0.1667
  band No.  band energies     occupation 
      1      -7.8341      2.00000
      2      -6.6545      2.00000
      3      -2.0192      2.00000
      4      -1.6984      2.00000
      5      -0.4013      0.00000
      6       0.4464      0.00000
      7       1.6459      0.00000
      8       1.6975      0.00000

 k-point    66 :      -0.4167    0.3333    0.1667
  band No.  band energies     occupation 
      1      -7.6804      2.00000
      2      -6.8490      2.00000
      3      -2.1204      2.00000
      4      -1.7739      2.00000
      5      -0.3130      0.00000
      6       0.5861      0.00000
      7       1.6908      0.00000
      8       1.7740      0.00000

 k-point    67 :      -0.3333    0.3333    0.1667
  band No.  band energies     occupation 
      1      -7.6031      2.00000
      2      -6.9408      2.00000
      3      -2.1549      2.00000
      4      -1.8033      2.00000
      5      -0.2880      0.00000
      6       0.6632      0.00000
      7       1.6908      0.00000
      8       1.8040      0.00000

 k-point    68 :      -0.4167    0.4167    0.1667
  band No.  band energies     occupation 
      1      -7.5760      2.00000
      2      -6.9717      2.00000
      3      -2.0703      2.00000
      4      -1.8998      2.00000
      5      -0.1188      0.00000
      6       0.2828      0.00000
      7       1.8378      0.00000
      8       1.8876      0.00000

 k-point    69 :      -0.3333    0.4167    0.1667
  band No.  band energies     occupation 
      1      -7.4523      2.00000
      2      -7.1087      2.00000
      3      -2.1290      2.00000
      4      -1.9361      2.00000
      5      -0.0450      0.00000
      6       0.4185      0.00000
      7       1.8154      0.00000
      8       1.8451      0.00000

 k-point    70 :      -0.2500    0.4167    0.1667
  band No.  band energies     occupation 
      1      -7.5206      2.00000
      2      -7.0337      2.00000
      3      -2.1587      2.00000
      4      -1.8808      2.00000
      5      -0.1237      0.00000
      6       0.5437      0.00000
      7       1.7689      0.00000
      8       1.7936      0.00000

 k-point    71 :      -0.3333    0.5000    0.1667
  band No.  band energies     occupation 
      1      -7.2842      2.00000
      2      -7.2842      2.00000
      3      -2.0288      2.00000
      4      -2.0287      2.00000
      5       0.1056      0.00000
      6       0.1056      0.00000
      7       1.9281      0.00000
      8       1.9281      0.00000

 k-point    72 :      -0.2500    0.5000    0.2500
  band No.  band energies     occupation 
      1      -7.2835      2.00000
      2      -7.2835      2.00000
      3      -2.0611      2.00000
      4      -2.0611      2.00000
      5       0.2283      0.00000
      6       0.2283      0.00000
      7       1.8220      0.00000
      8       1.8220      0.00000


--------------------------------------------------------------------------------------------------------


 soft charge-density along one line, spin component           1
         0         1         2         3         4         5         6         7         8         9
 total charge-density along one line
 
 pseudopotential strength for first ion, spin component:           1
 19.294   0.006   0.000   0.000   0.000  -0.000  -0.000  -0.000
  0.006   0.006  -0.000  -0.000  -0.000   0.000   0.000   0.000
  0.000  -0.000   4.289  -0.000  -0.000   0.001   0.000   0.000
  0.000  -0.000  -0.000   4.289  -0.000   0.000   0.001   0.000
  0.000  -0.000  -0.000  -0.000   4.289   0.000   0.000   0.001
 -0.000   0.000   0.001   0.000   0.000   0.004  -0.000  -0.000
 -0.000   0.000   0.000   0.001   0.000  -0.000   0.004  -0.000
 -0.000   0.000   0.000   0.000   0.001  -0.000  -0.000   0.004
 total augmentation occupancy for first ion, spin component:           1
  1.945   0.134   0.000   0.000   0.000  -0.000   0.000   0.000
  0.134   0.069   0.000   0.000   0.000   0.000   0.000   0.000
  0.000   0.000   0.613  -0.000  -0.000  -0.087   0.000   0.000
  0.000   0.000  -0.000   0.613   0.000   0.000  -0.087   0.000
  0.000   0.000   0.000   0.000   0.613   0.000   0.000  -0.087
 -0.000   0.000  -0.087   0.000   0.000   0.018   0.000  -0.000
  0.000   0.000   0.000  -0.087   0.000   0.000   0.018   0.000
  0.000   0.000   0.000   0.000  -0.087   0.000  -0.000   0.018


------------------------ aborting loop because EDIFF is reached ----------------------------------------


    CHARGE:  cpu time    0.09: real time    0.09
    FORLOC:  cpu time    0.00: real time    0.00
    FORNL :  cpu time    0.09: real time    0.09
    STRESS:  cpu time    0.81: real time    0.81
    FORCOR:  cpu time    0.06: real time    0.05
    FORHAR:  cpu time    0.02: real time    0.02
    MIXING:  cpu time    0.00: real time    0.00
    OFIELD:  cpu time    0.00: real time    0.00

  FORCE on cell =-STRESS in cart. coord.  units (eV):
  Direction    XX          YY          ZZ          XY          YZ          ZX
  --------------------------------------------------------------------------------------
  Alpha Z     1.11260     1.11260     1.11260
  Ewald     -52.68748   -52.68748   -52.68748     0.00000    -0.00000     0.00000
  Hartree    10.85700    10.85700    10.85700     0.00000     0.00000     0.00000
  E(xc)     -21.84781   -21.84781   -21.84781    -0.00000    -0.00000    -0.00000
  Local     -51.12082   -51.12082   -51.12082     0.00001     0.00001     0.00001
  n-local    78.32118    79.83150    73.94360     1.22954    -0.35897    -0.14883
  augment   -13.49703   -13.49703   -13.49703    -0.00001    -0.00001    -0.00001
  Kinetic    46.52478    48.83446    37.91983     2.64187    -1.00911     0.38289
  Fock        0.00000     0.00000     0.00000     0.00000     0.00000     0.00000
  -------------------------------------------------------------------------------------
  Total      -5.39176    -5.39176    -5.39176     0.00000    -0.00000     0.00000
  in kB     -71.37836   -71.37836   -71.37836     0.00000    -0.00000     0.00000
  external pressure =      -71.38 kB  Pullay stress =        0.00 kB


 VOLUME and BASIS-vectors are now :
 -----------------------------------------------------------------------------
  energy-cutoff  :      600.00
  volume of cell :      121.02
      direct lattice vectors                 reciprocal lattice vectors
     0.000000000  3.925981830  3.925981830    -0.127356677  0.127356677  0.127356677
     3.925981830  0.000000000  3.925981830     0.127356677 -0.127356677  0.127356677
     3.925981830  3.925981830  0.000000000     0.127356677  0.127356677 -0.127356677

  length of vectors
     5.552176750  5.552176750  5.552176750     0.220588235  0.220588235  0.220588235


 FORCES acting on ions
    electron-ion (+dipol)            ewald-force                    non-local-force                 convergence-correction
 -----------------------------------------------------------------------------------------------
   0.184E-07 0.184E-07 0.169E-07   -.340E-15 -.107E-15 -.382E-15   0.763E-16 0.694E-16 0.694E-16   0.107E-13 0.950E-14 0.149E-13
   -.184E-07 -.184E-07 -.169E-07   0.426E-15 0.222E-15 0.731E-15   -.763E-16 -.625E-16 -.729E-16   -.249E-13 -.242E-13 -.189E-13
 -----------------------------------------------------------------------------------------------
   0.141E-12 0.615E-13 0.191E-14   0.864E-16 0.116E-15 0.349E-15   0.000E+00 0.694E-17 -.347E-17   -.142E-13 -.147E-13 -.400E-14
 
 
 POSITION                                       TOTAL-FORCE (eV/Angst)
 -----------------------------------------------------------------------------------
      0.00000      0.00000      0.00000         0.000000      0.000000      0.000000
      1.96299      1.96299      1.96299        -0.000000     -0.000000     -0.000000
 -----------------------------------------------------------------------------------
    total drift:                                0.000000      0.000000     -0.000000


--------------------------------------------------------------------------------------------------------



  FREE ENERGIE OF THE ION-ELECTRON SYSTEM (eV)
  ---------------------------------------------------
  free  energy   TOTEN  =        -5.61104983 eV

  energy  without entropy=       -5.60795013  energy(sigma->0) =       -5.60949998
 


--------------------------------------------------------------------------------------------------------


    POTLOK:  cpu time    0.05: real time    0.06


--------------------------------------------------------------------------------------------------------


 writing wavefunctions
     LOOP+:  cpu time   23.29: real time   24.27
    4ORBIT:  cpu time    0.00: real time    0.00

 total amount of memory used by VASP on root node    68062. kBytes
========================================================================

   base      :      30000. kBytes
   nonl-proj :      18819. kBytes
   fftplans  :       3408. kBytes
   grid      :       6448. kBytes
   one-center:          6. kBytes
   wavefun   :       9381. kBytes
 
  
  
 General timing and accounting informations for this job:
 ========================================================
  
                  Total CPU time used (sec):       24.172
                            User time (sec):       23.528
                          System time (sec):        0.644
                         Elapsed time (sec):       25.421
  
                   Maximum memory used (kb):       84924.
                   Average memory used (kb):           0.
  
                          Minor page faults:        30385
                          Major page faults:            7
                 Voluntary context switches:          780
