 vasp.5.3.5 31Mar14 (build Jun 01 2017 17:55:53) complex                        
  
 executed on             LinuxIFC date 2020.11.10  15:17:30
 running on    4 total cores
 distrk:  each k-point on    4 cores,    1 groups
 distr:  one band on NCORES_PER_BAND=   1 cores,    4 groups


--------------------------------------------------------------------------------------------------------


 INCAR:
 POTCAR:   PAW_PBE Si 05Jan2001                   
 POTCAR:   PAW_PBE Si 05Jan2001                   
   VRHFIN =Si: s2p2                                                             
   LEXCH  = PE                                                                  
   EATOM  =   103.0669 eV,    7.5752 Ry                                         
                                                                                
   TITEL  = PAW_PBE Si 05Jan2001                                                
   LULTRA =        F    use ultrasoft PP ?                                      
   IUNSCR =        1    unscreen: 0-lin 1-nonlin 2-no                           
   RPACOR =    1.500    partial core radius                                     
   POMASS =   28.085; ZVAL   =    4.000    mass and valenz                      
   RCORE  =    1.900    outmost cutoff radius                                   
   RWIGS  =    2.480; RWIGS  =    1.312    wigner-seitz radius (au A)           
   ENMAX  =  245.345; ENMIN  =  184.009 eV                                      
   ICORE  =        2    local potential                                         
   LCOR   =        T    correct aug charges                                     
   LPAW   =        T    paw PP                                                  
   EAUG   =  322.069                                                            
   DEXC   =    -.007                                                            
   RMAX   =    2.944    core radius for proj-oper                               
   RAUG   =    1.300    factor for augmentation sphere                          
   RDEP   =    1.993    radius for radial grids                                 
   QCUT   =   -4.246; QGAM   =    8.493    optimization parameters              
                                                                                
   Description                                                                  
     l     E      TYP  RCUT    TYP  RCUT                                        
     0   .000     23  1.900                                                     
     0   .000     23  1.900                                                     
     1   .000     23  1.900                                                     
     1   .000     23  1.900                                                     
     2   .000      7  1.900                                                     
  local pseudopotential read in
  partial core-charges read in
  atomic valenz-charges read in
  non local Contribution for L=           0  read in
    real space projection operators read in
  non local Contribution for L=           0  read in
    real space projection operators read in
  non local Contribution for L=           1  read in
    real space projection operators read in
  non local Contribution for L=           1  read in
    real space projection operators read in
    PAW grid and wavefunctions read in
 
   number of l-projection  operators is LMAX  =           4
   number of lm-projection operators is LMMAX =           8
 
 PAW_PBE Si 05Jan2001                   :
 energy of atom  1       EATOM= -103.0669
 kinetic energy error for atom=    0.0003 (will be added to EATOM!!)
 
 
 POSCAR: Si
  positions in direct lattice
  velocities in cartesian coordinates
  No initial velocities read in
 exchange correlation table for  LEXCH =        8
   RHO(1)=    0.500       N(1)  =     2000
   RHO(2)=  100.500       N(2)  =     4000
 


--------------------------------------------------------------------------------------------------------


 ion  position               nearest neighbor table
   1  0.000  0.000  0.000-   2 2.30   2 2.30   2 2.30   2 2.30
   2  0.250  0.250  0.250-   1 2.30   1 2.30   1 2.30   1 2.30
 
  LATTYP: Found a face centered cubic cell.
 ALAT       =     5.3116224765
  
  Lattice vectors:
  
 A1 = (   0.0000000000,   2.6558112383,   2.6558112383)
 A2 = (   2.6558112383,   0.0000000000,   2.6558112383)
 A3 = (   2.6558112383,   2.6558112383,   0.0000000000)


Analysis of symmetry for initial positions (statically):
=====================================================================
 Subroutine PRICEL returns:
 Original cell was already a primitive cell.
 

 Routine SETGRP: Setting up the symmetry group for a 
 face centered cubic supercell.


 Subroutine GETGRP returns: Found 48 space group operations
 (whereof 24 operations were pure point group operations)
 out of a pool of 48 trial point group operations.


The static configuration has the point symmetry T_d .
 The point group associated with its full space group is O_h .


Analysis of symmetry for dynamics (positions and initial velocities):
=====================================================================
 Subroutine PRICEL returns:
 Original cell was already a primitive cell.
 

 Routine SETGRP: Setting up the symmetry group for a 
 face centered cubic supercell.


 Subroutine GETGRP returns: Found 48 space group operations
 (whereof 24 operations were pure point group operations)
 out of a pool of 48 trial point group operations.


The dynamic configuration has the point symmetry T_d .
 The point group associated with its full space group is O_h .


Analysis of constrained symmetry for selective dynamics:
=====================================================================
 Subroutine PRICEL returns:
 Original cell was already a primitive cell.
 

 Routine SETGRP: Setting up the symmetry group for a 
 face centered cubic supercell.


 Subroutine GETGRP returns: Found 48 space group operations
 (whereof 24 operations were pure point group operations)
 out of a pool of 48 trial point group operations.


The constrained configuration has the point symmetry T_d .
 The point group associated with its full space group is O_h .
 
 
 KPOINTS: Gamma centered Monkhorst-Pack           

Automatic generation of k-mesh.
Space group operators:
 irot       det(A)        alpha          n_x          n_y          n_z        tau_x        tau_y        tau_z
    1     1.000000     0.000000     1.000000     0.000000     0.000000     0.000000     0.000000     0.000000
    2     1.000000   120.000000    -0.577350    -0.577350    -0.577350     0.000000     0.000000     0.000000
    3     1.000000   120.000000     0.577350     0.577350     0.577350     0.000000     0.000000     0.000000
    4    -1.000000    90.000000     0.000000     0.000000    -1.000000     0.000000     0.000000     0.000000
    5    -1.000000   180.000000     0.000000     0.707107     0.707107     0.000000     0.000000     0.000000
    6    -1.000000    90.000000     0.000000     1.000000     0.000000     0.000000     0.000000     0.000000
    7     1.000000   180.000000     0.000000     0.000000     1.000000     0.000000     0.000000     0.000000
    8     1.000000   120.000000    -0.577350     0.577350     0.577350     0.000000     0.000000     0.000000
    9     1.000000   120.000000    -0.577350     0.577350    -0.577350     0.000000     0.000000     0.000000
   10    -1.000000    90.000000     0.000000     0.000000     1.000000     0.000000     0.000000     0.000000
   11    -1.000000    90.000000    -1.000000     0.000000     0.000000     0.000000     0.000000     0.000000
   12    -1.000000   180.000000     0.707107     0.000000     0.707107     0.000000     0.000000     0.000000
   13     1.000000   120.000000     0.577350    -0.577350     0.577350     0.000000     0.000000     0.000000
   14     1.000000   120.000000    -0.577350    -0.577350     0.577350     0.000000     0.000000     0.000000
   15     1.000000   180.000000     1.000000     0.000000     0.000000     0.000000     0.000000     0.000000
   16    -1.000000    90.000000     0.000000    -1.000000     0.000000     0.000000     0.000000     0.000000
   17    -1.000000   180.000000     0.707107     0.707107     0.000000     0.000000     0.000000     0.000000
   18    -1.000000    90.000000     1.000000     0.000000     0.000000     0.000000     0.000000     0.000000
   19     1.000000   120.000000     0.577350    -0.577350    -0.577350     0.000000     0.000000     0.000000
   20     1.000000   180.000000     0.000000     1.000000     0.000000     0.000000     0.000000     0.000000
   21     1.000000   120.000000     0.577350     0.577350    -0.577350     0.000000     0.000000     0.000000
   22    -1.000000   180.000000     0.000000    -0.707107     0.707107     0.000000     0.000000     0.000000
   23    -1.000000   180.000000     0.707107    -0.707107     0.000000     0.000000     0.000000     0.000000
   24    -1.000000   180.000000     0.707107     0.000000    -0.707107     0.000000     0.000000     0.000000
   25    -1.000000     0.000000     1.000000     0.000000     0.000000     0.250000     0.250000     0.250000
   26    -1.000000   120.000000    -0.577350    -0.577350    -0.577350     0.250000     0.250000     0.250000
   27    -1.000000   120.000000     0.577350     0.577350     0.577350     0.250000     0.250000     0.250000
   28     1.000000    90.000000     0.000000     0.000000    -1.000000     0.250000     0.250000     0.250000
   29     1.000000   180.000000     0.000000     0.707107     0.707107     0.250000     0.250000     0.250000
   30     1.000000    90.000000     0.000000     1.000000     0.000000     0.250000     0.250000     0.250000
   31    -1.000000   180.000000     0.000000     0.000000     1.000000     0.250000     0.250000     0.250000
   32    -1.000000   120.000000    -0.577350     0.577350     0.577350     0.250000     0.250000     0.250000
   33    -1.000000   120.000000    -0.577350     0.577350    -0.577350     0.250000     0.250000     0.250000
   34     1.000000    90.000000     0.000000     0.000000     1.000000     0.250000     0.250000     0.250000
   35     1.000000    90.000000    -1.000000     0.000000     0.000000     0.250000     0.250000     0.250000
   36     1.000000   180.000000     0.707107     0.000000     0.707107     0.250000     0.250000     0.250000
   37    -1.000000   120.000000     0.577350    -0.577350     0.577350     0.250000     0.250000     0.250000
   38    -1.000000   120.000000    -0.577350    -0.577350     0.577350     0.250000     0.250000     0.250000
   39    -1.000000   180.000000     1.000000     0.000000     0.000000     0.250000     0.250000     0.250000
   40     1.000000    90.000000     0.000000    -1.000000     0.000000     0.250000     0.250000     0.250000
   41     1.000000   180.000000     0.707107     0.707107     0.000000     0.250000     0.250000     0.250000
   42     1.000000    90.000000     1.000000     0.000000     0.000000     0.250000     0.250000     0.250000
   43    -1.000000   120.000000     0.577350    -0.577350    -0.577350     0.250000     0.250000     0.250000
   44    -1.000000   180.000000     0.000000     1.000000     0.000000     0.250000     0.250000     0.250000
   45    -1.000000   120.000000     0.577350     0.577350    -0.577350     0.250000     0.250000     0.250000
   46     1.000000   180.000000     0.000000    -0.707107     0.707107     0.250000     0.250000     0.250000
   47     1.000000   180.000000     0.707107    -0.707107     0.000000     0.250000     0.250000     0.250000
   48     1.000000   180.000000     0.707107     0.000000    -0.707107     0.250000     0.250000     0.250000
 
 Subroutine IBZKPT returns following result:
 ===========================================
 
 Found     72 irreducible k-points:
 
 Following reciprocal coordinates:
            Coordinates               Weight
  0.000000  0.000000  0.000000      1.000000
  0.083333  0.000000  0.000000      8.000000
  0.166667  0.000000  0.000000      8.000000
  0.250000  0.000000  0.000000      8.000000
  0.333333  0.000000  0.000000      8.000000
  0.416667  0.000000  0.000000      8.000000
  0.500000  0.000000  0.000000      4.000000
  0.083333  0.083333  0.000000      6.000000
  0.166667  0.083333  0.000000     24.000000
  0.250000  0.083333  0.000000     24.000000
  0.333333  0.083333  0.000000     24.000000
  0.416667  0.083333  0.000000     24.000000
  0.500000  0.083333  0.000000     24.000000
 -0.416667  0.083333  0.000000     24.000000
 -0.333333  0.083333  0.000000     24.000000
 -0.250000  0.083333  0.000000     24.000000
 -0.166667  0.083333  0.000000     24.000000
 -0.083333  0.083333  0.000000     12.000000
  0.166667  0.166667  0.000000      6.000000
  0.250000  0.166667  0.000000     24.000000
  0.333333  0.166667  0.000000     24.000000
  0.416667  0.166667  0.000000     24.000000
  0.500000  0.166667  0.000000     24.000000
 -0.416667  0.166667  0.000000     24.000000
 -0.333333  0.166667  0.000000     24.000000
 -0.250000  0.166667  0.000000     24.000000
 -0.166667  0.166667  0.000000     12.000000
  0.250000  0.250000  0.000000      6.000000
  0.333333  0.250000  0.000000     24.000000
  0.416667  0.250000  0.000000     24.000000
  0.500000  0.250000  0.000000     24.000000
 -0.416667  0.250000  0.000000     24.000000
 -0.333333  0.250000  0.000000     24.000000
 -0.250000  0.250000  0.000000     12.000000
  0.333333  0.333333  0.000000      6.000000
  0.416667  0.333333  0.000000     24.000000
  0.500000  0.333333  0.000000     24.000000
 -0.416667  0.333333  0.000000     24.000000
 -0.333333  0.333333  0.000000     12.000000
  0.416667  0.416667  0.000000      6.000000
  0.500000  0.416667  0.000000     24.000000
 -0.416667  0.416667  0.000000     12.000000
  0.500000  0.500000  0.000000      3.000000
  0.250000  0.166667  0.083333     24.000000
  0.333333  0.166667  0.083333     48.000000
  0.416667  0.166667  0.083333     48.000000
  0.500000  0.166667  0.083333     48.000000
 -0.416667  0.166667  0.083333     24.000000
  0.333333  0.250000  0.083333     24.000000
  0.416667  0.250000  0.083333     48.000000
  0.500000  0.250000  0.083333     48.000000
 -0.416667  0.250000  0.083333     48.000000
 -0.333333  0.250000  0.083333     48.000000
 -0.250000  0.250000  0.083333     48.000000
 -0.166667  0.250000  0.083333     24.000000
  0.416667  0.333333  0.083333     24.000000
  0.500000  0.333333  0.083333     48.000000
 -0.416667  0.333333  0.083333     48.000000
 -0.333333  0.333333  0.083333     48.000000
 -0.250000  0.333333  0.083333     24.000000
  0.500000  0.416667  0.083333     24.000000
 -0.416667  0.416667  0.083333     48.000000
 -0.333333  0.416667  0.083333     24.000000
 -0.416667  0.500000  0.083333     12.000000
  0.500000  0.333333  0.166667     24.000000
 -0.416667  0.333333  0.166667     48.000000
 -0.333333  0.333333  0.166667     24.000000
 -0.416667  0.416667  0.166667     24.000000
 -0.333333  0.416667  0.166667     48.000000
 -0.250000  0.416667  0.166667     24.000000
 -0.333333  0.500000  0.166667     12.000000
 -0.250000  0.500000  0.250000      6.000000
 
 Following cartesian coordinates:
            Coordinates               Weight
  0.000000  0.000000  0.000000      1.000000
 -0.083333  0.083333  0.083333      8.000000
 -0.166667  0.166667  0.166667      8.000000
 -0.250000  0.250000  0.250000      8.000000
 -0.333333  0.333333  0.333333      8.000000
 -0.416667  0.416667  0.416667      8.000000
 -0.500000  0.500000  0.500000      4.000000
  0.000000  0.000000  0.166667      6.000000
 -0.083333  0.083333  0.250000     24.000000
 -0.166667  0.166667  0.333333     24.000000
 -0.250000  0.250000  0.416667     24.000000
 -0.333333  0.333333  0.500000     24.000000
 -0.416667  0.416667  0.583333     24.000000
  0.500000 -0.500000 -0.333333     24.000000
  0.416667 -0.416667 -0.250000     24.000000
  0.333333 -0.333333 -0.166667     24.000000
  0.250000 -0.250000 -0.083333     24.000000
  0.166667 -0.166667  0.000000     12.000000
  0.000000  0.000000  0.333333      6.000000
 -0.083333  0.083333  0.416667     24.000000
 -0.166667  0.166667  0.500000     24.000000
 -0.250000  0.250000  0.583333     24.000000
 -0.333333  0.333333  0.666667     24.000000
  0.583333 -0.583333 -0.250000     24.000000
  0.500000 -0.500000 -0.166667     24.000000
  0.416667 -0.416667 -0.083333     24.000000
  0.333333 -0.333333  0.000000     12.000000
  0.000000  0.000000  0.500000      6.000000
 -0.083333  0.083333  0.583333     24.000000
 -0.166667  0.166667  0.666667     24.000000
 -0.250000  0.250000  0.750000     24.000000
  0.666667 -0.666667 -0.166667     24.000000
  0.583333 -0.583333 -0.083333     24.000000
  0.500000 -0.500000  0.000000     12.000000
  0.000000  0.000000  0.666667      6.000000
 -0.083333  0.083333  0.750000     24.000000
 -0.166667  0.166667  0.833333     24.000000
  0.750000 -0.750000 -0.083333     24.000000
  0.666667 -0.666667  0.000000     12.000000
  0.000000  0.000000  0.833333      6.000000
 -0.083333  0.083333  0.916667     24.000000
  0.833333 -0.833333  0.000000     12.000000
  0.000000  0.000000  1.000000      3.000000
  0.000000  0.166667  0.333333     24.000000
 -0.083333  0.250000  0.416667     48.000000
 -0.166667  0.333333  0.500000     48.000000
 -0.250000  0.416667  0.583333     48.000000
  0.666667 -0.500000 -0.333333     24.000000
  0.000000  0.166667  0.500000     24.000000
 -0.083333  0.250000  0.583333     48.000000
 -0.166667  0.333333  0.666667     48.000000
  0.750000 -0.583333 -0.250000     48.000000
  0.666667 -0.500000 -0.166667     48.000000
  0.583333 -0.416667 -0.083333     48.000000
  0.500000 -0.333333  0.000000     24.000000
 -0.000000  0.166667  0.666667     24.000000
 -0.083333  0.250000  0.750000     48.000000
  0.833333 -0.666667 -0.166667     48.000000
  0.750000 -0.583333 -0.083333     48.000000
  0.666667 -0.500000  0.000000     24.000000
  0.000000  0.166667  0.833333     24.000000
  0.916667 -0.750000 -0.083333     48.000000
  0.833333 -0.666667  0.000000     24.000000
  1.000000 -0.833333  0.000000     12.000000
  0.000000  0.333333  0.666667     24.000000
  0.916667 -0.583333 -0.250000     48.000000
  0.833333 -0.500000 -0.166667     24.000000
  1.000000 -0.666667 -0.166667     24.000000
  0.916667 -0.583333 -0.083333     48.000000
  0.833333 -0.500000  0.000000     24.000000
  1.000000 -0.666667  0.000000     12.000000
  1.000000 -0.500000  0.000000      6.000000
 


--------------------------------------------------------------------------------------------------------




 Dimension of arrays:
   k-points           NKPTS =     72   k-points in BZ     NKDIM =     72   number of bands    NBANDS=      8
   number of dos      NEDOS =    301   number of ions     NIONS =      2
   non local maximal  LDIM  =      4   non local SUM 2l+1 LMDIM =      8
   total plane-waves  NPLWV =  13824
   max r-space proj   IRMAX =      1   max aug-charges    IRDMAX=  12535
   dimension x,y,z NGX =    24 NGY =   24 NGZ =   24
   dimension x,y,z NGXF=    48 NGYF=   48 NGZF=   48
   support grid    NGXF=    48 NGYF=   48 NGZF=   48
   ions per type =               2
 NGX,Y,Z   is equivalent  to a cutoff of  10.62, 10.62, 10.62 a.u.
 NGXF,Y,Z  is equivalent  to a cutoff of  21.25, 21.25, 21.25 a.u.


 I would recommend the setting:
   dimension x,y,z NGX =    23 NGY =   23 NGZ =   23
 SYSTEM =  Si
 POSCAR =  Si

 Startparameter for this run:
   NWRITE =      2    write-flag & timer
   PREC   = normal    normal or accurate (medium, high low for compatibility)
   ISTART =      0    job   : 0-new  1-cont  2-samecut
   ICHARG =      2    charge: 1-file 2-atom 10-const
   ISPIN  =      1    spin polarized calculation?
   LNONCOLLINEAR =      F non collinear calculations
   LSORBIT =      F    spin-orbit coupling
   INIWAV =      1    electr: 0-lowe 1-rand  2-diag
   LASPH  =      F    aspherical Exc in radial PAW
   METAGGA=      F    non-selfconsistent MetaGGA calc.

 Electronic Relaxation 1
   ENCUT  =  600.0 eV  44.10 Ry    6.64 a.u.   7.50  7.50  7.50*2*pi/ulx,y,z
   ENINI  =  600.0     initial cutoff
   ENAUG  = 1200.0 eV  augmentation charge cutoff
   NELM   =    500;   NELMIN=  2; NELMDL= -5     # of ELM steps 
   EDIFF  = 0.1E-09   stopping-criterion for ELM
   LREAL  =      F    real-space projection
   NLSPLINE    = F    spline interpolate recip. space projectors
   LCOMPAT=      F    compatible to vasp.4.4
   GGA_COMPAT  = T    GGA compatible to vasp.4.4-vasp.4.6
   LMAXPAW     = -100 max onsite density
   LMAXMIX     =    2 max onsite mixed and CHGCAR
   VOSKOWN=      0    Vosko Wilk Nusair interpolation
   ROPT   =    0.00000
 Ionic relaxation
   EDIFFG = 0.1E-08   stopping-criterion for IOM
   NSW    =      0    number of steps for IOM
   NBLOCK =      1;   KBLOCK =      1    inner block; outer block 
   IBRION =     -1    ionic relax: 0-MD 1-quasi-New 2-CG
   NFREE  =      0    steps in history (QN), initial steepest desc. (CG)
   ISIF   =      2    stress and relaxation
   IWAVPR =     10    prediction:  0-non 1-charg 2-wave 3-comb
   ISYM   =      2    0-nonsym 1-usesym 2-fastsym
   LCORR  =      T    Harris-Foulkes like correction to forces

   POTIM  = 0.5000    time-step for ionic-motion
   TEIN   =    0.0    initial temperature
   TEBEG  =    0.0;   TEEND  =   0.0 temperature during run
   SMASS  =  -3.00    Nose mass-parameter (am)
   estimated Nose-frequenzy (Omega)   =  0.10E-29 period in steps =****** mass=  -0.322E-27a.u.
   SCALEE = 1.0000    scale energy and forces
   NPACO  =    256;   APACO  = 16.0  distance and # of slots for P.C.
   PSTRESS=    0.0 pullay stress

  Mass of Ions in am
   POMASS =  28.09
  Ionic Valenz
   ZVAL   =   4.00
  Atomic Wigner-Seitz radii
   RWIGS  =  -1.00
  virtual crystal weights 
   VCA    =   1.00
   NELECT =       8.0000    total number of electrons
   NUPDOWN=      -1.0000    fix difference up-down

 DOS related values:
   EMIN   =  10.00;   EMAX   =-10.00  energy-range for DOS
   EFERMI =   0.00
   ISMEAR =    -1;   SIGMA  =   0.03  broadening in eV -4-tet -1-fermi 0-gaus

 Electronic relaxation 2 (details)
   IALGO  =     38    algorithm
   LDIAG  =      T    sub-space diagonalisation (order eigenvalues)
   LSUBROT=      F    optimize rotation matrix (better conditioning)
   TURBO    =      0    0=normal 1=particle mesh
   IRESTART =      0    0=no restart 2=restart with 2 vectors
   NREBOOT  =      0    no. of reboots
   NMIN     =      0    reboot dimension
   EREF     =   0.00    reference energy to select bands
   IMIX   =      4    mixing-type and parameters
     AMIX     =   0.40;   BMIX     =  1.00
     AMIX_MAG =   1.60;   BMIX_MAG =  1.00
     AMIN     =   0.10
     WC   =   100.;   INIMIX=   1;  MIXPRE=   1;  MAXMIX= -45

 Intra band minimization:
   WEIMIN = 0.0000     energy-eigenvalue tresh-hold
   EBREAK =  0.31E-11  absolut break condition
   DEPER  =   0.30     relativ break condition  

   TIME   =   0.40     timestep for ELM

  volume/ion in A,a.u.               =      18.73       126.41
  Fermi-wavevector in a.u.,A,eV,Ry     =   0.978508  1.849112 13.027272  0.957478
  Thomas-Fermi vector in A             =   2.109289
 
 Write flags
   LWAVE  =      T    write WAVECAR
   LCHARG =      T    write CHGCAR
   LVTOT  =      F    write LOCPOT, total local potential
   LVHAR  =      F    write LOCPOT, Hartree potential only
   LELF   =      F    write electronic localiz. function (ELF)
   LORBIT =      0    0 simple, 1 ext, 2 COOP (PROOUT)


 Dipole corrections
   LMONO  =      F    monopole corrections only (constant potential shift)
   LDIPOL =      F    correct potential (dipole corrections)
   IDIPOL =      0    1-x, 2-y, 3-z, 4-all directions 
   EPSILON=  1.0000000 bulk dielectric constant

 Exchange correlation treatment:
   GGA     =    PE    GGA type
   LEXCH   =     8    internal setting for exchange type
   VOSKOWN=      0    Vosko Wilk Nusair interpolation
   LHFCALC =     F    Hartree Fock is set to
   LHFONE  =     F    Hartree Fock one center treatment
   AEXX    =    0.0000 exact exchange contribution

 Linear response parameters
   LEPSILON=     F    determine dielectric tensor
   LRPA    =     F    only Hartree local field effects (RPA)
   LNABLA  =     F    use nabla operator in PAW spheres
   LVEL    =     F    velocity operator in full k-point grid
   LINTERFAST=   F  fast interpolation
   KINTER  =     0    interpolate to denser k-point grid
   CSHIFT  =0.1000    complex shift for real part using Kramers Kronig
   OMEGAMAX=  -1.0    maximum frequency
   DEG_THRESHOLD= 0.2000000E-02 threshold for treating states as degnerate
   RTIME   =    0.100 relaxation time in fs

 Orbital magnetization related:
   ORBITALMAG=     F  switch on orbital magnetization
   LCHIMAG   =     F  perturbation theory with respect to B field
   DQ        =  0.001000  dq finite difference perturbation B field



--------------------------------------------------------------------------------------------------------


 Static calculation
 charge density and potential will be updated during run
 non-spin polarized calculation
 Variant of blocked Davidson
 Davidson routine will perform the subspace rotation
 perform sub-space diagonalisation
    after iterative eigenvector-optimisation
 modified Broyden-mixing scheme, WC =      100.0
 initial mixing is a Kerker type mixing with AMIX =  0.4000 and BMIX =      1.0000
 Hartree-type preconditioning will be used
 using additional bands            4
 reciprocal scheme for non local part
 use partial core corrections
 calculate Harris-corrections to forces 
   (improved forces if not selfconsistent)
 use gradient corrections 
 use of overlap-Matrix (Vanderbilt PP)
 Fermi-smearing in eV        SIGMA  =   0.03


--------------------------------------------------------------------------------------------------------


  energy-cutoff  :      600.00
  volume of cell :       37.46
      direct lattice vectors                 reciprocal lattice vectors
     0.000000000  2.655811238  2.655811238    -0.188266392  0.188266392  0.188266392
     2.655811238  0.000000000  2.655811238     0.188266392 -0.188266392  0.188266392
     2.655811238  2.655811238  0.000000000     0.188266392  0.188266392 -0.188266392

  length of vectors
     3.755884272  3.755884272  3.755884272     0.326086957  0.326086957  0.326086957


 
 k-points in units of 2pi/SCALE and weight: Gamma centered Monkhorst-Pack           
   0.00000000  0.00000000  0.00000000       0.001
  -0.08333333  0.08333333  0.08333333       0.005
  -0.16666667  0.16666667  0.16666667       0.005
  -0.25000000  0.25000000  0.25000000       0.005
  -0.33333333  0.33333333  0.33333333       0.005
  -0.41666667  0.41666667  0.41666667       0.005
  -0.50000000  0.50000000  0.50000000       0.002
   0.00000000  0.00000000  0.16666667       0.003
  -0.08333333  0.08333333  0.25000000       0.014
  -0.16666667  0.16666667  0.33333333       0.014
  -0.25000000  0.25000000  0.41666667       0.014
  -0.33333333  0.33333333  0.50000000       0.014
  -0.41666667  0.41666667  0.58333333       0.014
   0.50000000 -0.50000000 -0.33333333       0.014
   0.41666667 -0.41666667 -0.25000000       0.014
   0.33333333 -0.33333333 -0.16666667       0.014
   0.25000000 -0.25000000 -0.08333333       0.014
   0.16666667 -0.16666667  0.00000000       0.007
   0.00000000  0.00000000  0.33333333       0.003
  -0.08333333  0.08333333  0.41666667       0.014
  -0.16666667  0.16666667  0.50000000       0.014
  -0.25000000  0.25000000  0.58333333       0.014
  -0.33333333  0.33333333  0.66666667       0.014
   0.58333333 -0.58333333 -0.25000000       0.014
   0.50000000 -0.50000000 -0.16666667       0.014
   0.41666667 -0.41666667 -0.08333333       0.014
   0.33333333 -0.33333333  0.00000000       0.007
   0.00000000  0.00000000  0.50000000       0.003
  -0.08333333  0.08333333  0.58333333       0.014
  -0.16666667  0.16666667  0.66666667       0.014
  -0.25000000  0.25000000  0.75000000       0.014
   0.66666667 -0.66666667 -0.16666667       0.014
   0.58333333 -0.58333333 -0.08333333       0.014
   0.50000000 -0.50000000  0.00000000       0.007
   0.00000000  0.00000000  0.66666667       0.003
  -0.08333333  0.08333333  0.75000000       0.014
  -0.16666667  0.16666667  0.83333333       0.014
   0.75000000 -0.75000000 -0.08333333       0.014
   0.66666667 -0.66666667  0.00000000       0.007
   0.00000000  0.00000000  0.83333333       0.003
  -0.08333333  0.08333333  0.91666667       0.014
   0.83333333 -0.83333333  0.00000000       0.007
   0.00000000  0.00000000  1.00000000       0.002
   0.00000000  0.16666667  0.33333333       0.014
  -0.08333333  0.25000000  0.41666667       0.028
  -0.16666667  0.33333333  0.50000000       0.028
  -0.25000000  0.41666667  0.58333333       0.028
   0.66666667 -0.50000000 -0.33333333       0.014
   0.00000000  0.16666667  0.50000000       0.014
  -0.08333333  0.25000000  0.58333333       0.028
  -0.16666667  0.33333333  0.66666667       0.028
   0.75000000 -0.58333333 -0.25000000       0.028
   0.66666667 -0.50000000 -0.16666667       0.028
   0.58333333 -0.41666667 -0.08333333       0.028
   0.50000000 -0.33333333  0.00000000       0.014
  -0.00000000  0.16666667  0.66666667       0.014
  -0.08333333  0.25000000  0.75000000       0.028
   0.83333333 -0.66666667 -0.16666667       0.028
   0.75000000 -0.58333333 -0.08333333       0.028
   0.66666667 -0.50000000  0.00000000       0.014
   0.00000000  0.16666667  0.83333333       0.014
   0.91666667 -0.75000000 -0.08333333       0.028
   0.83333333 -0.66666667  0.00000000       0.014
   1.00000000 -0.83333333  0.00000000       0.007
   0.00000000  0.33333333  0.66666667       0.014
   0.91666667 -0.58333333 -0.25000000       0.028
   0.83333333 -0.50000000 -0.16666667       0.014
   1.00000000 -0.66666667 -0.16666667       0.014
   0.91666667 -0.58333333 -0.08333333       0.028
   0.83333333 -0.50000000  0.00000000       0.014
   1.00000000 -0.66666667  0.00000000       0.007
   1.00000000 -0.50000000  0.00000000       0.003
 
 k-points in reciprocal lattice and weights: Gamma centered Monkhorst-Pack           
   0.00000000  0.00000000  0.00000000       0.001
   0.08333333  0.00000000  0.00000000       0.005
   0.16666667  0.00000000  0.00000000       0.005
   0.25000000  0.00000000  0.00000000       0.005
   0.33333333  0.00000000  0.00000000       0.005
   0.41666667  0.00000000  0.00000000       0.005
   0.50000000  0.00000000  0.00000000       0.002
   0.08333333  0.08333333  0.00000000       0.003
   0.16666667  0.08333333  0.00000000       0.014
   0.25000000  0.08333333  0.00000000       0.014
   0.33333333  0.08333333  0.00000000       0.014
   0.41666667  0.08333333  0.00000000       0.014
   0.50000000  0.08333333  0.00000000       0.014
  -0.41666667  0.08333333  0.00000000       0.014
  -0.33333333  0.08333333  0.00000000       0.014
  -0.25000000  0.08333333  0.00000000       0.014
  -0.16666667  0.08333333  0.00000000       0.014
  -0.08333333  0.08333333  0.00000000       0.007
   0.16666667  0.16666667  0.00000000       0.003
   0.25000000  0.16666667  0.00000000       0.014
   0.33333333  0.16666667  0.00000000       0.014
   0.41666667  0.16666667  0.00000000       0.014
   0.50000000  0.16666667  0.00000000       0.014
  -0.41666667  0.16666667  0.00000000       0.014
  -0.33333333  0.16666667  0.00000000       0.014
  -0.25000000  0.16666667  0.00000000       0.014
  -0.16666667  0.16666667  0.00000000       0.007
   0.25000000  0.25000000  0.00000000       0.003
   0.33333333  0.25000000  0.00000000       0.014
   0.41666667  0.25000000  0.00000000       0.014
   0.50000000  0.25000000  0.00000000       0.014
  -0.41666667  0.25000000  0.00000000       0.014
  -0.33333333  0.25000000  0.00000000       0.014
  -0.25000000  0.25000000  0.00000000       0.007
   0.33333333  0.33333333  0.00000000       0.003
   0.41666667  0.33333333  0.00000000       0.014
   0.50000000  0.33333333  0.00000000       0.014
  -0.41666667  0.33333333  0.00000000       0.014
  -0.33333333  0.33333333  0.00000000       0.007
   0.41666667  0.41666667  0.00000000       0.003
   0.50000000  0.41666667  0.00000000       0.014
  -0.41666667  0.41666667  0.00000000       0.007
   0.50000000  0.50000000  0.00000000       0.002
   0.25000000  0.16666667  0.08333333       0.014
   0.33333333  0.16666667  0.08333333       0.028
   0.41666667  0.16666667  0.08333333       0.028
   0.50000000  0.16666667  0.08333333       0.028
  -0.41666667  0.16666667  0.08333333       0.014
   0.33333333  0.25000000  0.08333333       0.014
   0.41666667  0.25000000  0.08333333       0.028
   0.50000000  0.25000000  0.08333333       0.028
  -0.41666667  0.25000000  0.08333333       0.028
  -0.33333333  0.25000000  0.08333333       0.028
  -0.25000000  0.25000000  0.08333333       0.028
  -0.16666667  0.25000000  0.08333333       0.014
   0.41666667  0.33333333  0.08333333       0.014
   0.50000000  0.33333333  0.08333333       0.028
  -0.41666667  0.33333333  0.08333333       0.028
  -0.33333333  0.33333333  0.08333333       0.028
  -0.25000000  0.33333333  0.08333333       0.014
   0.50000000  0.41666667  0.08333333       0.014
  -0.41666667  0.41666667  0.08333333       0.028
  -0.33333333  0.41666667  0.08333333       0.014
  -0.41666667  0.50000000  0.08333333       0.007
   0.50000000  0.33333333  0.16666667       0.014
  -0.41666667  0.33333333  0.16666667       0.028
  -0.33333333  0.33333333  0.16666667       0.014
  -0.41666667  0.41666667  0.16666667       0.014
  -0.33333333  0.41666667  0.16666667       0.028
  -0.25000000  0.41666667  0.16666667       0.014
  -0.33333333  0.50000000  0.16666667       0.007
  -0.25000000  0.50000000  0.25000000       0.003
 
 position of ions in fractional coordinates (direct lattice) 
   0.00000000  0.00000000  0.00000000
   0.25000000  0.25000000  0.25000000
 
 position of ions in cartesian coordinates  (Angst):
   0.00000000  0.00000000  0.00000000
   1.32790562  1.32790562  1.32790562
 


--------------------------------------------------------------------------------------------------------


 k-point  1 :   0.0000 0.0000 0.0000  plane waves:    1243
 k-point  2 :   0.0833 0.0000 0.0000  plane waves:    1249
 k-point  3 :   0.1667 0.0000 0.0000  plane waves:    1260
 k-point  4 :   0.2500 0.0000 0.0000  plane waves:    1257
 k-point  5 :   0.3333 0.0000 0.0000  plane waves:    1272
 k-point  6 :   0.4167 0.0000 0.0000  plane waves:    1251
 k-point  7 :   0.5000 0.0000 0.0000  plane waves:    1224
 k-point  8 :   0.0833 0.0833 0.0000  plane waves:    1251
 k-point  9 :   0.1667 0.0833 0.0000  plane waves:    1269
 k-point 10 :   0.2500 0.0833 0.0000  plane waves:    1263
 k-point 11 :   0.3333 0.0833 0.0000  plane waves:    1252
 k-point 12 :   0.4167 0.0833 0.0000  plane waves:    1257
 k-point 13 :   0.5000 0.0833 0.0000  plane waves:    1240
 k-point 14 :  -0.4167 0.0833 0.0000  plane waves:    1240
 k-point 15 :  -0.3333 0.0833 0.0000  plane waves:    1255
 k-point 16 :  -0.2500 0.0833 0.0000  plane waves:    1259
 k-point 17 :  -0.1667 0.0833 0.0000  plane waves:    1259
 k-point 18 :  -0.0833 0.0833 0.0000  plane waves:    1265
 k-point 19 :   0.1667 0.1667 0.0000  plane waves:    1267
 k-point 20 :   0.2500 0.1667 0.0000  plane waves:    1266
 k-point 21 :   0.3333 0.1667 0.0000  plane waves:    1260
 k-point 22 :   0.4167 0.1667 0.0000  plane waves:    1256
 k-point 23 :   0.5000 0.1667 0.0000  plane waves:    1235
 k-point 24 :  -0.4167 0.1667 0.0000  plane waves:    1238
 k-point 25 :  -0.3333 0.1667 0.0000  plane waves:    1257
 k-point 26 :  -0.2500 0.1667 0.0000  plane waves:    1260
 k-point 27 :  -0.1667 0.1667 0.0000  plane waves:    1255
 k-point 28 :   0.2500 0.2500 0.0000  plane waves:    1283
 k-point 29 :   0.3333 0.2500 0.0000  plane waves:    1262
 k-point 30 :   0.4167 0.2500 0.0000  plane waves:    1258
 k-point 31 :   0.5000 0.2500 0.0000  plane waves:    1240
 k-point 32 :  -0.4167 0.2500 0.0000  plane waves:    1244
 k-point 33 :  -0.3333 0.2500 0.0000  plane waves:    1247
 k-point 34 :  -0.2500 0.2500 0.0000  plane waves:    1264
 k-point 35 :   0.3333 0.3333 0.0000  plane waves:    1266
 k-point 36 :   0.4167 0.3333 0.0000  plane waves:    1248
 k-point 37 :   0.5000 0.3333 0.0000  plane waves:    1242
 k-point 38 :  -0.4167 0.3333 0.0000  plane waves:    1246
 k-point 39 :  -0.3333 0.3333 0.0000  plane waves:    1234
 k-point 40 :   0.4167 0.4167 0.0000  plane waves:    1254
 k-point 41 :   0.5000 0.4167 0.0000  plane waves:    1250
 k-point 42 :  -0.4167 0.4167 0.0000  plane waves:    1252
 k-point 43 :   0.5000 0.5000 0.0000  plane waves:    1234
 k-point 44 :   0.2500 0.1667 0.0833  plane waves:    1260
 k-point 45 :   0.3333 0.1667 0.0833  plane waves:    1259
 k-point 46 :   0.4167 0.1667 0.0833  plane waves:    1254
 k-point 47 :   0.5000 0.1667 0.0833  plane waves:    1245
 k-point 48 :  -0.4167 0.1667 0.0833  plane waves:    1238
 k-point 49 :   0.3333 0.2500 0.0833  plane waves:    1258
 k-point 50 :   0.4167 0.2500 0.0833  plane waves:    1256
 k-point 51 :   0.5000 0.2500 0.0833  plane waves:    1245
 k-point 52 :  -0.4167 0.2500 0.0833  plane waves:    1245
 k-point 53 :  -0.3333 0.2500 0.0833  plane waves:    1249
 k-point 54 :  -0.2500 0.2500 0.0833  plane waves:    1252
 k-point 55 :  -0.1667 0.2500 0.0833  plane waves:    1261
 k-point 56 :   0.4167 0.3333 0.0833  plane waves:    1256
 k-point 57 :   0.5000 0.3333 0.0833  plane waves:    1248
 k-point 58 :  -0.4167 0.3333 0.0833  plane waves:    1247
 k-point 59 :  -0.3333 0.3333 0.0833  plane waves:    1242
 k-point 60 :  -0.2500 0.3333 0.0833  plane waves:    1240
 k-point 61 :   0.5000 0.4167 0.0833  plane waves:    1245
 k-point 62 :  -0.4167 0.4167 0.0833  plane waves:    1244
 k-point 63 :  -0.3333 0.4167 0.0833  plane waves:    1259
 k-point 64 :  -0.4167 0.5000 0.0833  plane waves:    1256
 k-point 65 :   0.5000 0.3333 0.1667  plane waves:    1248
 k-point 66 :  -0.4167 0.3333 0.1667  plane waves:    1241
 k-point 67 :  -0.3333 0.3333 0.1667  plane waves:    1240
 k-point 68 :  -0.4167 0.4167 0.1667  plane waves:    1239
 k-point 69 :  -0.3333 0.4167 0.1667  plane waves:    1240
 k-point 70 :  -0.2500 0.4167 0.1667  plane waves:    1241
 k-point 71 :  -0.3333 0.5000 0.1667  plane waves:    1246
 k-point 72 :  -0.2500 0.5000 0.2500  plane waves:    1232

 maximum and minimum number of plane-waves per node :      1283     1224

 maximum number of plane-waves:      1283
 maximum index in each direction: 
   IXMAX=    7   IYMAX=    7   IZMAX=    7
   IXMIN=   -7   IYMIN=   -7   IZMIN=   -7

 WARNING: aliasing errors must be expected set NGX to  30 to avoid them
 WARNING: aliasing errors must be expected set NGY to  30 to avoid them
 WARNING: aliasing errors must be expected set NGZ to  30 to avoid them
 aliasing errors are usually negligible using standard VASP settings
 and one can safely disregard these warnings

 serial   3D FFT for wavefunctions
 parallel 3D FFT for charge:
    minimum data exchange during FFTs selected (reduces bandwidth)


 total amount of memory used by VASP on root node    41909. kBytes
========================================================================

   base      :      30000. kBytes
   nonl-proj :       5957. kBytes
   fftplans  :       1025. kBytes
   grid      :       1926. kBytes
   one-center:          6. kBytes
   wavefun   :       2995. kBytes
 
     INWAV:  cpu time    0.00: real time    0.00
 Broyden mixing: mesh for mixing (old mesh)
   NGX = 15   NGY = 15   NGZ = 15
  (NGX  = 48   NGY  = 48   NGZ  = 48)
  gives a total of   3375 points

 initial charge density was supplied:
 charge density of overlapping atoms calculated
 number of electron       8.0000000 magnetization 
 keeping initial charge density in first step


--------------------------------------------------------------------------------------------------------


 Maximum index for augmentation-charges         2985 (set IRDMAX)


--------------------------------------------------------------------------------------------------------


 First call to EWALD:  gamma=   0.530
 Maximum number of real-space cells 3x 3x 3
 Maximum number of reciprocal cells 3x 3x 3

 FEWALD executed in parallel
    FEWALD:  cpu time    0.00: real time    0.00


----------------------------------------- Iteration    1(   1)  ---------------------------------------


    POTLOK:  cpu time    0.01: real time    0.02
    SETDIJ:  cpu time    0.00: real time    0.00
     EDDAV:  cpu time    0.24: real time    0.25
       DOS:  cpu time    0.00: real time    0.00
    --------------------------------------------
      LOOP:  cpu time    0.25: real time    0.27

 eigenvalue-minimisations  :  1152
 total energy-change (2. order) : 0.1009463E+02  (-0.3689813E+03)
 number of electron       8.0000000 magnetization 
 augmentation part        8.0000000 magnetization 

 Free energy of the ion-electron system (eV)
  ---------------------------------------------------
  alpha Z        PSCENC =         3.59411700
  Ewald energy   TEWEN  =      -233.65740804
  -Hartree energ DENC   =       -10.03136010
  -exchange      EXHF   =         0.00000000
  -V(xc)+E(xc)   XCENC  =       -18.33656481
  PAW double counting   =        65.95520812      -30.76852678
  entropy T*S    EENTRO =        -0.00174457
  eigenvalues    EBANDS =        27.20779338
  atomic energy  EATOM  =       206.13311910
  ---------------------------------------------------
  free energy    TOTEN  =        10.09463331 eV

  energy without entropy =       10.09637787  energy(sigma->0) =       10.09550559


--------------------------------------------------------------------------------------------------------




----------------------------------------- Iteration    1(   2)  ---------------------------------------


     EDDAV:  cpu time    0.36: real time    0.36
       DOS:  cpu time    0.00: real time    0.00
    --------------------------------------------
      LOOP:  cpu time    0.36: real time    0.36

 eigenvalue-minimisations  :  1776
 total energy-change (2. order) :-0.2080974E+02  (-0.2020868E+02)
 number of electron       8.0000000 magnetization 
 augmentation part        8.0000000 magnetization 

 Free energy of the ion-electron system (eV)
  ---------------------------------------------------
  alpha Z        PSCENC =         3.59411700
  Ewald energy   TEWEN  =      -233.65740804
  -Hartree energ DENC   =       -10.03136010
  -exchange      EXHF   =         0.00000000
  -V(xc)+E(xc)   XCENC  =       -18.33656481
  PAW double counting   =        65.95520812      -30.76852678
  entropy T*S    EENTRO =        -0.00000000
  eigenvalues    EBANDS =         6.39631289
  atomic energy  EATOM  =       206.13311910
  ---------------------------------------------------
  free energy    TOTEN  =       -10.71510261 eV

  energy without entropy =      -10.71510261  energy(sigma->0) =      -10.71510261


--------------------------------------------------------------------------------------------------------




----------------------------------------- Iteration    1(   3)  ---------------------------------------


     EDDAV:  cpu time    0.30: real time    0.30
       DOS:  cpu time    0.00: real time    0.00
    --------------------------------------------
      LOOP:  cpu time    0.30: real time    0.31

 eigenvalue-minimisations  :  1472
 total energy-change (2. order) :-0.2628765E+00  (-0.2628765E+00)
 number of electron       8.0000000 magnetization 
 augmentation part        8.0000000 magnetization 

 Free energy of the ion-electron system (eV)
  ---------------------------------------------------
  alpha Z        PSCENC =         3.59411700
  Ewald energy   TEWEN  =      -233.65740804
  -Hartree energ DENC   =       -10.03136010
  -exchange      EXHF   =         0.00000000
  -V(xc)+E(xc)   XCENC  =       -18.33656481
  PAW double counting   =        65.95520812      -30.76852678
  entropy T*S    EENTRO =        -0.00000000
  eigenvalues    EBANDS =         6.13343644
  atomic energy  EATOM  =       206.13311910
  ---------------------------------------------------
  free energy    TOTEN  =       -10.97797907 eV

  energy without entropy =      -10.97797907  energy(sigma->0) =      -10.97797907


--------------------------------------------------------------------------------------------------------




----------------------------------------- Iteration    1(   4)  ---------------------------------------


     EDDAV:  cpu time    0.36: real time    0.37
       DOS:  cpu time    0.00: real time    0.00
    --------------------------------------------
      LOOP:  cpu time    0.36: real time    0.38

 eigenvalue-minimisations  :  1864
 total energy-change (2. order) :-0.1112520E-02  (-0.1112521E-02)
 number of electron       8.0000000 magnetization 
 augmentation part        8.0000000 magnetization 

 Free energy of the ion-electron system (eV)
  ---------------------------------------------------
  alpha Z        PSCENC =         3.59411700
  Ewald energy   TEWEN  =      -233.65740804
  -Hartree energ DENC   =       -10.03136010
  -exchange      EXHF   =         0.00000000
  -V(xc)+E(xc)   XCENC  =       -18.33656481
  PAW double counting   =        65.95520812      -30.76852678
  entropy T*S    EENTRO =        -0.00000000
  eigenvalues    EBANDS =         6.13232392
  atomic energy  EATOM  =       206.13311910
  ---------------------------------------------------
  free energy    TOTEN  =       -10.97909159 eV

  energy without entropy =      -10.97909159  energy(sigma->0) =      -10.97909159


--------------------------------------------------------------------------------------------------------




----------------------------------------- Iteration    1(   5)  ---------------------------------------


     EDDAV:  cpu time    0.30: real time    0.31
       DOS:  cpu time    0.00: real time    0.00
    CHARGE:  cpu time    0.02: real time    0.02
    MIXING:  cpu time    0.00: real time    0.00
    --------------------------------------------
      LOOP:  cpu time    0.32: real time    0.33

 eigenvalue-minimisations  :  1512
 total energy-change (2. order) :-0.9904046E-06  (-0.9900460E-06)
 number of electron       8.0000000 magnetization 
 augmentation part       -0.4752864 magnetization 

 Broyden mixing:
  rms(total) = 0.31795E+00    rms(broyden)= 0.31795E+00
  rms(prec ) = 0.93878E+00
  weight for this iteration     100.00

 Free energy of the ion-electron system (eV)
  ---------------------------------------------------
  alpha Z        PSCENC =         3.59411700
  Ewald energy   TEWEN  =      -233.65740804
  -Hartree energ DENC   =       -10.03136010
  -exchange      EXHF   =         0.00000000
  -V(xc)+E(xc)   XCENC  =       -18.33656481
  PAW double counting   =        65.95520812      -30.76852678
  entropy T*S    EENTRO =        -0.00000000
  eigenvalues    EBANDS =         6.13232293
  atomic energy  EATOM  =       206.13311910
  ---------------------------------------------------
  free energy    TOTEN  =       -10.97909258 eV

  energy without entropy =      -10.97909258  energy(sigma->0) =      -10.97909258


--------------------------------------------------------------------------------------------------------




----------------------------------------- Iteration    1(   6)  ---------------------------------------


    POTLOK:  cpu time    0.02: real time    0.01
    SETDIJ:  cpu time    0.00: real time    0.00
     EDDAV:  cpu time    0.29: real time    0.30
       DOS:  cpu time    0.00: real time    0.00
    CHARGE:  cpu time    0.02: real time    0.02
    MIXING:  cpu time    0.00: real time    0.00
    --------------------------------------------
      LOOP:  cpu time    0.32: real time    0.34

 eigenvalue-minimisations  :  1400
 total energy-change (2. order) : 0.1555534E+00  (-0.1076125E-01)
 number of electron       8.0000000 magnetization 
 augmentation part       -0.4684438 magnetization 

 Broyden mixing:
  rms(total) = 0.18630E+00    rms(broyden)= 0.18630E+00
  rms(prec ) = 0.54521E+00
  weight for this iteration     100.00

 eigenvalues of (default mixing * dielectric matrix)
  average eigenvalue GAMMA=   2.3936
  2.3936

 Free energy of the ion-electron system (eV)
  ---------------------------------------------------
  alpha Z        PSCENC =         3.59411700
  Ewald energy   TEWEN  =      -233.65740804
  -Hartree energ DENC   =       -11.62888039
  -exchange      EXHF   =         0.00000000
  -V(xc)+E(xc)   XCENC  =       -18.08175855
  PAW double counting   =        70.91009975      -35.86192220
  entropy T*S    EENTRO =        -0.00000001
  eigenvalues    EBANDS =         7.76909416
  atomic energy  EATOM  =       206.13311910
  ---------------------------------------------------
  free energy    TOTEN  =       -10.82353918 eV

  energy without entropy =      -10.82353917  energy(sigma->0) =      -10.82353918


--------------------------------------------------------------------------------------------------------




----------------------------------------- Iteration    1(   7)  ---------------------------------------


    POTLOK:  cpu time    0.01: real time    0.01
    SETDIJ:  cpu time    0.00: real time    0.00
     EDDAV:  cpu time    0.30: real time    0.30
       DOS:  cpu time    0.00: real time    0.00
    CHARGE:  cpu time    0.02: real time    0.02
    MIXING:  cpu time    0.00: real time    0.00
    --------------------------------------------
      LOOP:  cpu time    0.33: real time    0.34

 eigenvalue-minimisations  :  1472
 total energy-change (2. order) : 0.6785481E-01  (-0.1850758E-01)
 number of electron       8.0000000 magnetization 
 augmentation part       -0.4603293 magnetization 

 Broyden mixing:
  rms(total) = 0.16810E-01    rms(broyden)= 0.16810E-01
  rms(prec ) = 0.44012E-01
  weight for this iteration     100.00

 eigenvalues of (default mixing * dielectric matrix)
  average eigenvalue GAMMA=   2.4410
  2.4410  2.4410

 Free energy of the ion-electron system (eV)
  ---------------------------------------------------
  alpha Z        PSCENC =         3.59411700
  Ewald energy   TEWEN  =      -233.65740804
  -Hartree energ DENC   =       -14.12408073
  -exchange      EXHF   =         0.00000000
  -V(xc)+E(xc)   XCENC  =       -17.67503328
  PAW double counting   =        77.51311775      -42.64194819
  entropy T*S    EENTRO =        -0.00000055
  eigenvalues    EBANDS =        10.10243257
  atomic energy  EATOM  =       206.13311910
  ---------------------------------------------------
  free energy    TOTEN  =       -10.75568437 eV

  energy without entropy =      -10.75568382  energy(sigma->0) =      -10.75568410


--------------------------------------------------------------------------------------------------------




----------------------------------------- Iteration    1(   8)  ---------------------------------------


    POTLOK:  cpu time    0.01: real time    0.02
    SETDIJ:  cpu time    0.00: real time    0.00
     EDDAV:  cpu time    0.28: real time    0.29
       DOS:  cpu time    0.00: real time    0.00
    CHARGE:  cpu time    0.02: real time    0.02
    MIXING:  cpu time    0.00: real time    0.00
    --------------------------------------------
      LOOP:  cpu time    0.31: real time    0.33

 eigenvalue-minimisations  :  1344
 total energy-change (2. order) :-0.1327075E-02  (-0.4707928E-03)
 number of electron       8.0000000 magnetization 
 augmentation part       -0.4613919 magnetization 

 Broyden mixing:
  rms(total) = 0.25167E-02    rms(broyden)= 0.25167E-02
  rms(prec ) = 0.83130E-02
  weight for this iteration     100.00

 eigenvalues of (default mixing * dielectric matrix)
  average eigenvalue GAMMA=   2.1049
  1.3820  2.7711  2.1615

 Free energy of the ion-electron system (eV)
  ---------------------------------------------------
  alpha Z        PSCENC =         3.59411700
  Ewald energy   TEWEN  =      -233.65740804
  -Hartree energ DENC   =       -14.09561383
  -exchange      EXHF   =         0.00000000
  -V(xc)+E(xc)   XCENC  =       -17.66215502
  PAW double counting   =        76.63264273      -41.73230600
  entropy T*S    EENTRO =        -0.00000035
  eigenvalues    EBANDS =        10.03059297
  atomic energy  EATOM  =       206.13311910
  ---------------------------------------------------
  free energy    TOTEN  =       -10.75701145 eV

  energy without entropy =      -10.75701110  energy(sigma->0) =      -10.75701127


--------------------------------------------------------------------------------------------------------




----------------------------------------- Iteration    1(   9)  ---------------------------------------


    POTLOK:  cpu time    0.01: real time    0.01
    SETDIJ:  cpu time    0.00: real time    0.00
     EDDAV:  cpu time    0.36: real time    0.37
       DOS:  cpu time    0.00: real time    0.00
    CHARGE:  cpu time    0.02: real time    0.02
    MIXING:  cpu time    0.00: real time    0.00
    --------------------------------------------
      LOOP:  cpu time    0.40: real time    0.41

 eigenvalue-minimisations  :  1776
 total energy-change (2. order) :-0.8022878E-04  (-0.9475632E-05)
 number of electron       8.0000000 magnetization 
 augmentation part       -0.4614281 magnetization 

 Broyden mixing:
  rms(total) = 0.14848E-02    rms(broyden)= 0.14848E-02
  rms(prec ) = 0.36603E-02
  weight for this iteration     100.00

 eigenvalues of (default mixing * dielectric matrix)
  average eigenvalue GAMMA=   2.1757
  0.9797  2.9744  2.4920  2.2567

 Free energy of the ion-electron system (eV)
  ---------------------------------------------------
  alpha Z        PSCENC =         3.59411700
  Ewald energy   TEWEN  =      -233.65740804
  -Hartree energ DENC   =       -14.13319240
  -exchange      EXHF   =         0.00000000
  -V(xc)+E(xc)   XCENC  =       -17.65563128
  PAW double counting   =        76.64407642      -41.74431325
  entropy T*S    EENTRO =        -0.00000035
  eigenvalues    EBANDS =        10.06214111
  atomic energy  EATOM  =       206.13311910
  ---------------------------------------------------
  free energy    TOTEN  =       -10.75709168 eV

  energy without entropy =      -10.75709133  energy(sigma->0) =      -10.75709150


--------------------------------------------------------------------------------------------------------




----------------------------------------- Iteration    1(  10)  ---------------------------------------


    POTLOK:  cpu time    0.02: real time    0.02
    SETDIJ:  cpu time    0.00: real time    0.01
     EDDAV:  cpu time    0.29: real time    0.31
       DOS:  cpu time    0.00: real time    0.00
    CHARGE:  cpu time    0.02: real time    0.02
    MIXING:  cpu time    0.00: real time    0.00
    --------------------------------------------
      LOOP:  cpu time    0.32: real time    0.36

 eigenvalue-minimisations  :  1352
 total energy-change (2. order) :-0.1901011E-04  (-0.2588386E-05)
 number of electron       8.0000000 magnetization 
 augmentation part       -0.4613716 magnetization 

 Broyden mixing:
  rms(total) = 0.15232E-03    rms(broyden)= 0.15232E-03
  rms(prec ) = 0.41573E-03
  weight for this iteration     100.00

 eigenvalues of (default mixing * dielectric matrix)
  average eigenvalue GAMMA=   2.0025
  3.1042  2.5862  2.1510  0.9835  1.1876

 Free energy of the ion-electron system (eV)
  ---------------------------------------------------
  alpha Z        PSCENC =         3.59411700
  Ewald energy   TEWEN  =      -233.65740804
  -Hartree energ DENC   =       -14.14319960
  -exchange      EXHF   =         0.00000000
  -V(xc)+E(xc)   XCENC  =       -17.65555343
  PAW double counting   =        76.62924345      -41.73018673
  entropy T*S    EENTRO =        -0.00000035
  eigenvalues    EBANDS =        10.07275791
  atomic energy  EATOM  =       206.13311910
  ---------------------------------------------------
  free energy    TOTEN  =       -10.75711069 eV

  energy without entropy =      -10.75711034  energy(sigma->0) =      -10.75711051


--------------------------------------------------------------------------------------------------------




----------------------------------------- Iteration    1(  11)  ---------------------------------------


    POTLOK:  cpu time    0.02: real time    0.02
    SETDIJ:  cpu time    0.00: real time    0.00
     EDDAV:  cpu time    0.60: real time    0.87
       DOS:  cpu time    0.00: real time    0.00
    CHARGE:  cpu time    0.02: real time    0.02
    MIXING:  cpu time    0.00: real time    0.00
    --------------------------------------------
      LOOP:  cpu time    0.64: real time    0.92

 eigenvalue-minimisations  :  1872
 total energy-change (2. order) : 0.5750259E-06  (-0.4561418E-07)
 number of electron       8.0000000 magnetization 
 augmentation part       -0.4613850 magnetization 

 Broyden mixing:
  rms(total) = 0.54322E-04    rms(broyden)= 0.54322E-04
  rms(prec ) = 0.10830E-03
  weight for this iteration     100.00

 eigenvalues of (default mixing * dielectric matrix)
  average eigenvalue GAMMA=   2.1155
  3.1534  2.7932  2.5822  2.1569  0.9802  1.0269

 Free energy of the ion-electron system (eV)
  ---------------------------------------------------
  alpha Z        PSCENC =         3.59411700
  Ewald energy   TEWEN  =      -233.65740804
  -Hartree energ DENC   =       -14.14122311
  -exchange      EXHF   =         0.00000000
  -V(xc)+E(xc)   XCENC  =       -17.65571909
  PAW double counting   =        76.61929781      -41.71981790
  entropy T*S    EENTRO =        -0.00000034
  eigenvalues    EBANDS =        10.07052446
  atomic energy  EATOM  =       206.13311910
  ---------------------------------------------------
  free energy    TOTEN  =       -10.75711011 eV

  energy without entropy =      -10.75710977  energy(sigma->0) =      -10.75710994


--------------------------------------------------------------------------------------------------------




----------------------------------------- Iteration    1(  12)  ---------------------------------------


    POTLOK:  cpu time    0.01: real time    0.02
    SETDIJ:  cpu time    0.00: real time    0.00
     EDDAV:  cpu time    0.30: real time    0.30
       DOS:  cpu time    0.00: real time    0.00
    CHARGE:  cpu time    0.02: real time    0.02
    MIXING:  cpu time    0.00: real time    0.00
    --------------------------------------------
      LOOP:  cpu time    0.32: real time    0.34

 eigenvalue-minimisations  :  1344
 total energy-change (2. order) : 0.1104641E-07  (-0.3930669E-08)
 number of electron       8.0000000 magnetization 
 augmentation part       -0.4613823 magnetization 

 Broyden mixing:
  rms(total) = 0.51628E-05    rms(broyden)= 0.51627E-05
  rms(prec ) = 0.16228E-04
  weight for this iteration     100.00

 eigenvalues of (default mixing * dielectric matrix)
  average eigenvalue GAMMA=   1.9832
  3.2033  2.6766  2.3992  2.2389  0.9756  1.0517  1.3373

 Free energy of the ion-electron system (eV)
  ---------------------------------------------------
  alpha Z        PSCENC =         3.59411700
  Ewald energy   TEWEN  =      -233.65740804
  -Hartree energ DENC   =       -14.14168736
  -exchange      EXHF   =         0.00000000
  -V(xc)+E(xc)   XCENC  =       -17.65569130
  PAW double counting   =        76.62165025      -41.72212545
  entropy T*S    EENTRO =        -0.00000034
  eigenvalues    EBANDS =        10.07091603
  atomic energy  EATOM  =       206.13311910
  ---------------------------------------------------
  free energy    TOTEN  =       -10.75711010 eV

  energy without entropy =      -10.75710976  energy(sigma->0) =      -10.75710993


--------------------------------------------------------------------------------------------------------




----------------------------------------- Iteration    1(  13)  ---------------------------------------


    POTLOK:  cpu time    0.01: real time    0.01
    SETDIJ:  cpu time    0.00: real time    0.00
     EDDAV:  cpu time    0.40: real time    0.41
       DOS:  cpu time    0.00: real time    0.00
    CHARGE:  cpu time    0.02: real time    0.02
    MIXING:  cpu time    0.00: real time    0.00
    --------------------------------------------
      LOOP:  cpu time    0.44: real time    0.45

 eigenvalue-minimisations  :  1936
 total energy-change (2. order) : 0.1073985E-07  (-0.4842099E-10)
 number of electron       8.0000000 magnetization 
 augmentation part       -0.4613827 magnetization 

 Broyden mixing:
  rms(total) = 0.17082E-05    rms(broyden)= 0.17081E-05
  rms(prec ) = 0.26316E-05
  weight for this iteration     100.00

 eigenvalues of (default mixing * dielectric matrix)
  average eigenvalue GAMMA=   2.0393
  3.2079  2.7396  2.7396  2.1727  2.4835  1.0064  0.9955  0.9695

 Free energy of the ion-electron system (eV)
  ---------------------------------------------------
  alpha Z        PSCENC =         3.59411700
  Ewald energy   TEWEN  =      -233.65740804
  -Hartree energ DENC   =       -14.14161420
  -exchange      EXHF   =         0.00000000
  -V(xc)+E(xc)   XCENC  =       -17.65569705
  PAW double counting   =        76.62129589      -41.72176492
  entropy T*S    EENTRO =        -0.00000034
  eigenvalues    EBANDS =        10.07084247
  atomic energy  EATOM  =       206.13311910
  ---------------------------------------------------
  free energy    TOTEN  =       -10.75711009 eV

  energy without entropy =      -10.75710975  energy(sigma->0) =      -10.75710992


--------------------------------------------------------------------------------------------------------




----------------------------------------- Iteration    1(  14)  ---------------------------------------


    POTLOK:  cpu time    0.01: real time    0.01
    SETDIJ:  cpu time    0.00: real time    0.00
     EDDAV:  cpu time    0.27: real time    0.27
       DOS:  cpu time    0.00: real time    0.00
    CHARGE:  cpu time    0.02: real time    0.02
    MIXING:  cpu time    0.00: real time    0.00
    --------------------------------------------
      LOOP:  cpu time    0.30: real time    0.31

 eigenvalue-minimisations  :  1240
 total energy-change (2. order) :-0.4378904E-08  (-0.5119853E-11)
 number of electron       8.0000000 magnetization 
 augmentation part       -0.4613827 magnetization 

 Broyden mixing:
  rms(total) = 0.17194E-06    rms(broyden)= 0.17193E-06
  rms(prec ) = 0.41281E-06
  weight for this iteration     100.00

 eigenvalues of (default mixing * dielectric matrix)
  average eigenvalue GAMMA=   1.9348
  3.1921  2.8669  2.1809  2.6389  2.4936  1.0856  1.0284  0.9834  0.9431

 Free energy of the ion-electron system (eV)
  ---------------------------------------------------
  alpha Z        PSCENC =         3.59411700
  Ewald energy   TEWEN  =      -233.65740804
  -Hartree energ DENC   =       -14.14161120
  -exchange      EXHF   =         0.00000000
  -V(xc)+E(xc)   XCENC  =       -17.65569619
  PAW double counting   =        76.62126578      -41.72173974
  entropy T*S    EENTRO =        -0.00000034
  eigenvalues    EBANDS =        10.07084354
  atomic energy  EATOM  =       206.13311910
  ---------------------------------------------------
  free energy    TOTEN  =       -10.75711010 eV

  energy without entropy =      -10.75710975  energy(sigma->0) =      -10.75710992


--------------------------------------------------------------------------------------------------------




----------------------------------------- Iteration    1(  15)  ---------------------------------------


    POTLOK:  cpu time    0.01: real time    0.01
    SETDIJ:  cpu time    0.00: real time    0.00
     EDDAV:  cpu time    0.26: real time    0.32
       DOS:  cpu time    0.00: real time    0.00
    CHARGE:  cpu time    0.02: real time    0.02
    MIXING:  cpu time    0.00: real time    0.00
    --------------------------------------------
      LOOP:  cpu time    0.30: real time    0.36

 eigenvalue-minimisations  :  1024
 total energy-change (2. order) :-0.6906475E-09  (-0.1388970E-12)
 number of electron       8.0000000 magnetization 
 augmentation part       -0.4613827 magnetization 

 Broyden mixing:
  rms(total) = 0.41515E-07    rms(broyden)= 0.41495E-07
  rms(prec ) = 0.70436E-07
  weight for this iteration     100.00

 eigenvalues of (default mixing * dielectric matrix)
  average eigenvalue GAMMA=   2.0007
  3.1854  2.1766  2.8383  2.6759  2.6759  2.4829  1.0098  0.9893  0.9866  0.9866

 Free energy of the ion-electron system (eV)
  ---------------------------------------------------
  alpha Z        PSCENC =         3.59411700
  Ewald energy   TEWEN  =      -233.65740804
  -Hartree energ DENC   =       -14.14161135
  -exchange      EXHF   =         0.00000000
  -V(xc)+E(xc)   XCENC  =       -17.65569631
  PAW double counting   =        76.62127383      -41.72174825
  entropy T*S    EENTRO =        -0.00000034
  eigenvalues    EBANDS =        10.07084426
  atomic energy  EATOM  =       206.13311910
  ---------------------------------------------------
  free energy    TOTEN  =       -10.75711010 eV

  energy without entropy =      -10.75710975  energy(sigma->0) =      -10.75710992


--------------------------------------------------------------------------------------------------------




----------------------------------------- Iteration    1(  16)  ---------------------------------------


    POTLOK:  cpu time    0.02: real time    0.01
    SETDIJ:  cpu time    0.00: real time    0.00
     EDDAV:  cpu time    0.22: real time    0.23
       DOS:  cpu time    0.00: real time    0.00
    --------------------------------------------
      LOOP:  cpu time    0.24: real time    0.25

 eigenvalue-minimisations  :   880
 total energy-change (2. order) : 0.9211476E-10  ( 0.2418698E-13)
 number of electron       8.0000000 magnetization 
 augmentation part       -0.4613827 magnetization 

 Free energy of the ion-electron system (eV)
  ---------------------------------------------------
  alpha Z        PSCENC =         3.59411700
  Ewald energy   TEWEN  =      -233.65740804
  -Hartree energ DENC   =       -14.14161114
  -exchange      EXHF   =         0.00000000
  -V(xc)+E(xc)   XCENC  =       -17.65569637
  PAW double counting   =        76.62127392      -41.72174819
  entropy T*S    EENTRO =        -0.00000034
  eigenvalues    EBANDS =        10.07084397
  atomic energy  EATOM  =       206.13311910
  ---------------------------------------------------
  free energy    TOTEN  =       -10.75711010 eV

  energy without entropy =      -10.75710975  energy(sigma->0) =      -10.75710992


--------------------------------------------------------------------------------------------------------




 average (electrostatic) potential at core
  the test charge radii are     0.9892
  (the norm of the test charge is              1.0000)
       1 -82.4869       2 -82.4869
 
 
 
 E-fermi :   6.7340     XC(G=0):  -9.6717     alpha+bet :-12.8038


 k-point     1 :       0.0000    0.0000    0.0000
  band No.  band energies     occupation 
      1      -5.9090      2.00000
      2       6.5196      1.99962
      3       6.5196      1.99962
      4       6.5196      1.99962
      5       9.1096      0.00000
      6       9.1096      0.00000
      7       9.1096      0.00000
      8      10.6786      0.00000

 k-point     2 :       0.0833    0.0000    0.0000
  band No.  band energies     occupation 
      1      -5.8126      2.00000
      2       5.6542      2.00000
      3       6.3656      2.00000
      4       6.3656      2.00000
      5       9.2413      0.00000
      6       9.3361      0.00000
      7       9.3361      0.00000
      8      11.2487      0.00000

 k-point     3 :       0.1667    0.0000    0.0000
  band No.  band energies     occupation 
      1      -5.5264      2.00000
      2       4.0804      2.00000
      3       6.0412      2.00000
      4       6.0412      2.00000
      5       9.0730      0.00000
      6       9.7940      0.00000
      7       9.7940      0.00000
      8      12.5949      0.00000

 k-point     4 :       0.2500    0.0000    0.0000
  band No.  band energies     occupation 
      1      -5.0608      2.00000
      2       2.4627      2.00000
      3       5.7178      2.00000
      4       5.7178      2.00000
      5       8.7751      0.00000
      6      10.0758      0.00000
      7      10.0758      0.00000
      8      13.7386      0.00000

 k-point     5 :       0.3333    0.0000    0.0000
  band No.  band energies     occupation 
      1      -4.4449      2.00000
      2       0.9799      2.00000
      3       5.4684      2.00000
      4       5.4684      2.00000
      5       8.5172      0.00000
      6      10.0330      0.00000
      7      10.0330      0.00000
      8      14.6039      0.00000

 k-point     6 :       0.4167    0.0000    0.0000
  band No.  band energies     occupation 
      1      -3.7739      2.00000
      2      -0.2238      2.00000
      3       5.3155      2.00000
      4       5.3155      2.00000
      5       8.3521      0.00000
      6       9.8872      0.00000
      7       9.8872      0.00000
      8      14.4284      0.00000

 k-point     7 :       0.5000    0.0000    0.0000
  band No.  band energies     occupation 
      1      -3.4037      2.00000
      2      -0.7734      2.00000
      3       5.2644      2.00000
      4       5.2644      2.00000
      5       8.2959      0.00000
      6       9.8216      0.00000
      7       9.8216      0.00000
      8      14.3290      0.00000

 k-point     8 :       0.0833    0.0833    0.0000
  band No.  band energies     occupation 
      1      -5.7804      2.00000
      2       5.8717      2.00000
      3       6.0538      2.00000
      4       6.0538      2.00000
      5       8.8184      0.00000
      6       9.7326      0.00000
      7       9.7326      0.00000
      8      11.2518      0.00000

 k-point     9 :       0.1667    0.0833    0.0000
  band No.  band energies     occupation 
      1      -5.5570      2.00000
      2       4.5740      2.00000
      3       5.6667      2.00000
      4       5.9006      2.00000
      5       8.8503      0.00000
      6       9.9369      0.00000
      7      10.3017      0.00000
      8      11.8455      0.00000

 k-point    10 :       0.2500    0.0833    0.0000
  band No.  band energies     occupation 
      1      -5.1497      2.00000
      2       2.9984      2.00000
      3       5.3385      2.00000
      4       5.5650      2.00000
      5       9.0497      0.00000
      6       9.9049      0.00000
      7      10.6865      0.00000
      8      12.0136      0.00000

 k-point    11 :       0.3333    0.0833    0.0000
  band No.  band energies     occupation 
      1      -4.5790      2.00000
      2       1.4841      2.00000
      3       5.1217      2.00000
      4       5.1958      2.00000
      5       8.9733      0.00000
      6       9.8888      0.00000
      7      10.6669      0.00000
      8      12.5863      0.00000

 k-point    12 :       0.4167    0.0833    0.0000
  band No.  band energies     occupation 
      1      -3.9065      2.00000
      2       0.1773      2.00000
      3       4.8839      2.00000
      4       5.0325      2.00000
      5       8.8326      0.00000
      6       9.7967      0.00000
      7      10.4276      0.00000
      8      13.7034      0.00000

 k-point    13 :       0.5000    0.0833    0.0000
  band No.  band energies     occupation 
      1      -3.3673      2.00000
      2      -0.6548      2.00000
      3       4.6649      2.00000
      4       5.0703      2.00000
      5       8.7690      0.00000
      6       9.7724      0.00000
      7      10.2017      0.00000
      8      14.6062      0.00000

 k-point    14 :      -0.4167    0.0833    0.0000
  band No.  band energies     occupation 
      1      -3.5017      2.00000
      2      -0.4608      2.00000
      3       4.5583      2.00000
      4       5.2254      2.00000
      5       8.8112      0.00000
      6       9.8855      0.00000
      7      10.0852      0.00000
      8      14.7130      0.00000

 k-point    15 :      -0.3333    0.0833    0.0000
  band No.  band energies     occupation 
      1      -4.1353      2.00000
      2       0.5827      2.00000
      3       4.5788      2.00000
      4       5.4804      2.00000
      5       8.9545      0.00000
      6      10.0710      0.00000
      7      10.1154      0.00000
      8      14.1744      0.00000

 k-point    16 :      -0.2500    0.0833    0.0000
  band No.  band energies     occupation 
      1      -4.7861      2.00000
      2       1.9749      2.00000
      3       4.7370      2.00000
      4       5.8081      2.00000
      5       9.1817      0.00000
      6      10.0266      0.00000
      7      10.3146      0.00000
      8      13.1796      0.00000

 k-point    17 :      -0.1667    0.0833    0.0000
  band No.  band energies     occupation 
      1      -5.3058      2.00000
      2       3.5123      2.00000
      3       5.0450      2.00000
      4       6.1553      2.00000
      5       9.4479      0.00000
      6       9.7427      0.00000
      7      10.1517      0.00000
      8      12.6567      0.00000

 k-point    18 :      -0.0833    0.0833    0.0000
  band No.  band energies     occupation 
      1      -5.6528      2.00000
      2       4.9267      2.00000
      3       5.5861      2.00000
      4       6.4015      2.00000
      5       9.3709      0.00000
      6       9.5557      0.00000
      7       9.6493      0.00000
      8      11.9454      0.00000

 k-point    19 :       0.1667    0.1667    0.0000
  band No.  band energies     occupation 
      1      -5.3966      2.00000
      2       4.5349      2.00000
      3       5.2409      2.00000
      4       5.2409      2.00000
      5       8.1971      0.00000
      6      11.0083      0.00000
      7      11.0083      0.00000
      8      11.0363      0.00000

 k-point    20 :       0.2500    0.1667    0.0000
  band No.  band energies     occupation 
      1      -5.0498      2.00000
      2       3.3748      2.00000
      3       4.8884      2.00000
      4       4.8999      2.00000
      5       8.2192      0.00000
      6      10.5240      0.00000
      7      11.3391      0.00000
      8      11.5908      0.00000

 k-point    21 :       0.3333    0.1667    0.0000
  band No.  band energies     occupation 
      1      -4.5310      2.00000
      2       1.9773      2.00000
      3       4.4344      2.00000
      4       4.6606      2.00000
      5       8.4684      0.00000
      6      10.6911      0.00000
      7      11.1954      0.00000
      8      11.7261      0.00000

 k-point    22 :       0.4167    0.1667    0.0000
  band No.  band energies     occupation 
      1      -3.8807      2.00000
      2       0.6601      2.00000
      3       3.9745      2.00000
      4       4.5760      2.00000
      5       8.5114      0.00000
      6      10.9724      0.00000
      7      11.4971      0.00000
      8      11.6880      0.00000

 k-point    23 :       0.5000    0.1667    0.0000
  band No.  band energies     occupation 
      1      -3.2458      2.00000
      2      -0.3474      2.00000
      3       3.6089      2.00000
      4       4.6372      2.00000
      5       8.5534      0.00000
      6      10.8165      0.00000
      7      11.1906      0.00000
      8      13.1312      0.00000

 k-point    24 :      -0.4167    0.1667    0.0000
  band No.  band energies     occupation 
      1      -3.1180      2.00000
      2      -0.5237      2.00000
      3       3.3763      2.00000
      4       4.8360      2.00000
      5       8.7273      0.00000
      6      10.7515      0.00000
      7      10.9501      0.00000
      8      14.7596      0.00000

 k-point    25 :      -0.3333    0.1667    0.0000
  band No.  band energies     occupation 
      1      -3.6651      2.00000
      2       0.2993      2.00000
      3       3.3044      2.00000
      4       5.1520      2.00000
      5       9.0396      0.00000
      6      10.7818      0.00000
      7      10.7940      0.00000
      8      13.9165      0.00000

 k-point    26 :      -0.2500    0.1667    0.0000
  band No.  band energies     occupation 
      1      -4.3357      2.00000
      2       1.5286      2.00000
      3       3.4366      2.00000
      4       5.5454      2.00000
      5       9.4309      0.00000
      6      10.5963      0.00000
      7      10.8155      0.00000
      8      12.8487      0.00000

 k-point    27 :      -0.1667    0.1667    0.0000
  band No.  band energies     occupation 
      1      -4.9023      2.00000
      2       2.7402      2.00000
      3       3.9362      2.00000
      4       5.9337      2.00000
      5       9.7508      0.00000
      6      10.1524      0.00000
      7      10.4819      0.00000
      8      12.4574      0.00000

 k-point    28 :       0.2500    0.2500    0.0000
  band No.  band energies     occupation 
      1      -4.7635      2.00000
      2       3.0134      2.00000
      3       4.5044      2.00000
      4       4.5044      2.00000
      5       7.5829      0.00000
      6       9.6169      0.00000
      7      12.4945      0.00000
      8      12.4945      0.00000

 k-point    29 :       0.3333    0.2500    0.0000
  band No.  band energies     occupation 
      1      -4.3003      2.00000
      2       2.0508      2.00000
      3       4.0125      2.00000
      4       4.2456      2.00000
      5       7.6680      0.00000
      6       9.2381      0.00000
      7      12.8390      0.00000
      8      12.9757      0.00000

 k-point    30 :       0.4167    0.2500    0.0000
  band No.  band energies     occupation 
      1      -3.6870      2.00000
      2       0.9504      2.00000
      3       3.3436      2.00000
      4       4.1348      2.00000
      5       7.8764      0.00000
      6       9.7562      0.00000
      7      12.7426      0.00000
      8      12.8834      0.00000

 k-point    31 :       0.5000    0.2500    0.0000
  band No.  band energies     occupation 
      1      -3.0139      2.00000
      2      -0.0500      2.00000
      3       2.7667      2.00000
      4       4.1785      2.00000
      5       7.9615      0.00000
      6      11.0042      0.00000
      7      12.5664      0.00000
      8      12.6038      0.00000

 k-point    32 :      -0.4167    0.2500    0.0000
  band No.  band energies     occupation 
      1      -2.6546      2.00000
      2      -0.5083      2.00000
      3       2.3788      2.00000
      4       4.3719      2.00000
      5       8.1579      0.00000
      6      12.0983      0.00000
      7      12.2529      0.00000
      8      13.0030      0.00000

 k-point    33 :      -0.3333    0.2500    0.0000
  band No.  band energies     occupation 
      1      -3.0654      2.00000
      2       0.0321      2.00000
      3       2.2390      2.00000
      4       4.6977      2.00000
      5       8.5166      0.00000
      6      11.9671      0.00000
      7      12.1467      0.00000
      8      13.8664      0.00000

 k-point    34 :      -0.2500    0.2500    0.0000
  band No.  band energies     occupation 
      1      -3.7354      2.00000
      2       0.9135      2.00000
      3       2.5073      2.00000
      4       5.1175      2.00000
      5       8.9974      0.00000
      6      11.4449      0.00000
      7      11.8017      0.00000
      8      12.9322      0.00000

 k-point    35 :       0.3333    0.3333    0.0000
  band No.  band energies     occupation 
      1      -3.8922      2.00000
      2       1.4503      2.00000
      3       3.9487      2.00000
      4       3.9487      2.00000
      5       7.1456      0.00000
      6       8.4007      0.00000
      7      14.0753      0.00000
      8      14.0753      0.00000

 k-point    36 :       0.4167    0.3333    0.0000
  band No.  band energies     occupation 
      1      -3.3242      2.00000
      2       0.6219      2.00000
      3       3.4208      2.00000
      4       3.7992      2.00000
      5       7.3074      0.00000
      6       8.2828      0.00000
      7      14.4238      0.00000
      8      14.4554      0.00000

 k-point    37 :       0.5000    0.3333    0.0000
  band No.  band energies     occupation 
      1      -2.6506      2.00000
      2      -0.1920      2.00000
      3       2.6297      2.00000
      4       3.8074      2.00000
      5       7.4706      0.00000
      6       9.2131      0.00000
      7      14.1943      0.00000
      8      14.3761      0.00000

 k-point    38 :      -0.4167    0.3333    0.0000
  band No.  band energies     occupation 
      1      -2.1345      2.00000
      2      -0.7257      2.00000
      3       2.0027      2.00000
      4       3.9717      2.00000
      5       7.6584      0.00000
      6      10.7265      0.00000
      7      13.8321      0.00000
      8      14.2067      0.00000

 k-point    39 :      -0.3333    0.3333    0.0000
  band No.  band energies     occupation 
      1      -2.4228      2.00000
      2      -0.4276      2.00000
      3       1.7854      2.00000
      4       4.2793      2.00000
      5       8.0130      0.00000
      6      12.3771      0.00000
      7      13.2239      0.00000
      8      13.9579      0.00000

 k-point    40 :       0.4167    0.4167    0.0000
  band No.  band energies     occupation 
      1      -2.8009      2.00000
      2      -0.0816      2.00000
      3       3.6068      2.00000
      4       3.6068      2.00000
      5       6.9648      0.00020
      6       7.5574      0.00000
      7      15.7211      0.00000
      8      15.7211      0.00000

 k-point    41 :       0.5000    0.4167    0.0000
  band No.  band energies     occupation 
      1      -2.1480      2.00000
      2      -0.8080      2.00000
      3       3.1316      2.00000
      4       3.5719      2.00000
      5       7.1619      0.00000
      6       7.7610      0.00000
      7      15.9507      0.00000
      8      16.1250      0.00000

 k-point    42 :      -0.4167    0.4167    0.0000
  band No.  band energies     occupation 
      1      -1.6466      2.00000
      2      -1.2435      2.00000
      3       2.3951      2.00000
      4       3.6966      2.00000
      5       7.3279      0.00000
      6       9.0377      0.00000
      7      15.4106      0.00000
      8      15.9600      0.00000

 k-point    43 :       0.5000    0.5000    0.0000
  band No.  band energies     occupation 
      1      -1.5171      2.00000
      2      -1.5171      2.00000
      3       3.4917      2.00000
      4       3.4917      2.00000
      5       7.0891      0.00000
      6       7.0891      0.00000
      7      17.2178      0.00000
      8      17.2178      0.00000

 k-point    44 :       0.2500    0.1667    0.0833
  band No.  band energies     occupation 
      1      -5.2722      2.00000
      2       3.7730      2.00000
      3       4.7659      2.00000
      4       5.7878      2.00000
      5       8.8725      0.00000
      6      10.3143      0.00000
      7      10.8059      0.00000
      8      11.5184      0.00000

 k-point    45 :       0.3333    0.1667    0.0833
  band No.  band energies     occupation 
      1      -4.8088      2.00000
      2       2.4618      2.00000
      3       4.2196      2.00000
      4       5.4932      2.00000
      5       9.1838      0.00000
      6      10.2422      0.00000
      7      11.2153      0.00000
      8      11.4448      0.00000

 k-point    46 :       0.4167    0.1667    0.0833
  band No.  band energies     occupation 
      1      -4.1950      2.00000
      2       1.0765      2.00000
      3       3.9552      2.00000
      4       5.1403      2.00000
      5       9.2725      0.00000
      6       9.9924      0.00000
      7      11.2626      0.00000
      8      12.1576      0.00000

 k-point    47 :       0.5000    0.1667    0.0833
  band No.  band energies     occupation 
      1      -3.5233      2.00000
      2      -0.0907      2.00000
      3       3.8349      2.00000
      4       4.8722      2.00000
      5       9.2622      0.00000
      6       9.7115      0.00000
      7      11.1605      0.00000
      8      13.4574      0.00000

 k-point    48 :      -0.4167    0.1667    0.0833
  band No.  band energies     occupation 
      1      -3.1490      2.00000
      2      -0.6341      2.00000
      3       3.8032      2.00000
      4       4.7715      2.00000
      5       9.2747      0.00000
      6       9.5786      0.00000
      7      11.1095      0.00000
      8      14.8624      0.00000

 k-point    49 :       0.3333    0.2500    0.0833
  band No.  band energies     occupation 
      1      -4.6456      2.00000
      2       2.5645      2.00000
      3       4.0294      2.00000
      4       4.7984      2.00000
      5       8.2872      0.00000
      6      10.0544      0.00000
      7      11.5275      0.00000
      8      12.3639      0.00000

 k-point    50 :       0.4167    0.2500    0.0833
  band No.  band energies     occupation 
      1      -4.0786      2.00000
      2       1.4483      2.00000
      3       3.4732      2.00000
      4       4.4826      2.00000
      5       8.6273      0.00000
      6      10.2682      0.00000
      7      11.2766      0.00000
      8      12.7560      0.00000

 k-point    51 :       0.5000    0.2500    0.0833
  band No.  band energies     occupation 
      1      -3.4072      2.00000
      2       0.3130      2.00000
      3       3.1141      2.00000
      4       4.2510      2.00000
      5       8.7427      0.00000
      6      10.8048      0.00000
      7      11.4840      0.00000
      8      12.7349      0.00000

 k-point    52 :      -0.4167    0.2500    0.0833
  band No.  band energies     occupation 
      1      -2.8627      2.00000
      2      -0.4582      2.00000
      3       2.8587      2.00000
      4       4.2312      2.00000
      5       8.8809      0.00000
      6      10.5465      0.00000
      7      12.5708      0.00000
      8      13.0338      0.00000

 k-point    53 :      -0.3333    0.2500    0.0833
  band No.  band energies     occupation 
      1      -3.0118      2.00000
      2      -0.2535      2.00000
      3       2.7249      2.00000
      4       4.4190      2.00000
      5       9.1575      0.00000
      6      10.3401      0.00000
      7      12.5301      0.00000
      8      13.3556      0.00000

 k-point    54 :      -0.2500    0.2500    0.0833
  band No.  band energies     occupation 
      1      -3.6523      2.00000
      2       0.6987      2.00000
      3       2.7835      2.00000
      4       4.7622      2.00000
      5       9.5629      0.00000
      6      10.1845      0.00000
      7      11.9604      0.00000
      8      12.4491      0.00000

 k-point    55 :      -0.1667    0.2500    0.0833
  band No.  band energies     occupation 
      1      -4.2970      2.00000
      2       1.7430      2.00000
      3       3.2069      2.00000
      4       5.1758      2.00000
      5       9.7884      0.00000
      6      10.0112      0.00000
      7      11.2525      0.00000
      8      12.0369      0.00000

 k-point    56 :       0.4167    0.3333    0.0833
  band No.  band energies     occupation 
      1      -3.7859      2.00000
      2       1.2613      2.00000
      3       3.4900      2.00000
      4       3.9466      2.00000
      5       7.8566      0.00000
      6       8.9241      0.00000
      7      12.8290      0.00000
      8      14.0171      0.00000

 k-point    57 :       0.5000    0.3333    0.0833
  band No.  band energies     occupation 
      1      -3.1390      2.00000
      2       0.3770      2.00000
      3       2.8593      2.00000
      4       3.7103      2.00000
      5       8.1888      0.00000
      6       9.5070      0.00000
      7      12.5059      0.00000
      8      14.4033      0.00000

 k-point    58 :      -0.4167    0.3333    0.0833
  band No.  band energies     occupation 
      1      -2.4999      2.00000
      2      -0.3953      2.00000
      3       2.3010      2.00000
      4       3.7206      2.00000
      5       8.3441      0.00000
      6      10.8546      0.00000
      7      12.2017      0.00000
      8      14.3516      0.00000

 k-point    59 :      -0.3333    0.3333    0.0833
  band No.  band energies     occupation 
      1      -2.4163      2.00000
      2      -0.4780      2.00000
      3       1.9870      2.00000
      4       3.9350      2.00000
      5       8.6202      0.00000
      6      11.6722      0.00000
      7      12.7377      0.00000
      8      13.5119      0.00000

 k-point    60 :      -0.2500    0.3333    0.0833
  band No.  band energies     occupation 
      1      -2.9986      2.00000
      2       0.1540      2.00000
      3       2.0759      2.00000
      4       4.3063      2.00000
      5       9.0464      0.00000
      6      11.2726      0.00000
      7      12.1758      0.00000
      8      13.5514      0.00000

 k-point    61 :       0.5000    0.4167    0.0833
  band No.  band energies     occupation 
      1      -2.7157      2.00000
      2      -0.1159      2.00000
      3       3.1884      2.00000
      4       3.3933      2.00000
      5       7.6611      0.00000
      6       8.1578      0.00000
      7      14.2516      0.00000
      8      15.7197      0.00000

 k-point    62 :      -0.4167    0.4167    0.0833
  band No.  band energies     occupation 
      1      -2.0402      2.00000
      2      -0.7945      2.00000
      3       2.4968      2.00000
      4       3.3481      2.00000
      5       7.9523      0.00000
      6       9.1377      0.00000
      7      13.9065      0.00000
      8      15.4903      0.00000

 k-point    63 :      -0.3333    0.4167    0.0833
  band No.  band energies     occupation 
      1      -1.8575      2.00000
      2      -0.9265      2.00000
      3       1.9533      2.00000
      4       3.5594      2.00000
      5       8.2050      0.00000
      6      10.7316      0.00000
      7      13.4348      0.00000
      8      13.8148      0.00000

 k-point    64 :      -0.4167    0.5000    0.0833
  band No.  band energies     occupation 
      1      -1.4720      2.00000
      2      -1.4720      2.00000
      3       3.1486      2.00000
      4       3.1486      2.00000
      5       7.7485      0.00000
      6       7.7485      0.00000
      7      15.8010      0.00000
      8      15.8010      0.00000

 k-point    65 :       0.5000    0.3333    0.1667
  band No.  band energies     occupation 
      1      -3.4767      2.00000
      2       0.7671      2.00000
      3       2.7038      2.00000
      4       4.0661      2.00000
      5       9.3984      0.00000
      6      10.1891      0.00000
      7      10.9552      0.00000
      8      13.8468      0.00000

 k-point    66 :      -0.4167    0.3333    0.1667
  band No.  band energies     occupation 
      1      -2.8050      2.00000
      2      -0.0544      2.00000
      3       2.3406      2.00000
      4       3.6984      2.00000
      5       9.7523      0.00000
      6      10.3476      0.00000
      7      11.4210      0.00000
      8      14.2663      0.00000

 k-point    67 :      -0.3333    0.3333    0.1667
  band No.  band energies     occupation 
      1      -2.4098      2.00000
      2      -0.5251      2.00000
      3       2.2487      2.00000
      4       3.5571      2.00000
      5       9.8363      0.00000
      6      10.1998      0.00000
      7      12.7432      0.00000
      8      13.3019      0.00000

 k-point    68 :      -0.4167    0.4167    0.1667
  band No.  band energies     occupation 
      1      -2.4797      2.00000
      2      -0.2640      2.00000
      3       2.4858      2.00000
      4       3.1376      2.00000
      5       9.2035      0.00000
      6       9.5810      0.00000
      7      12.1026      0.00000
      8      15.1396      0.00000

 k-point    69 :      -0.3333    0.4167    0.1667
  band No.  band energies     occupation 
      1      -1.9123      2.00000
      2      -0.8026      2.00000
      3       2.1373      2.00000
      4       2.9729      2.00000
      5       9.5406      0.00000
      6      10.8241      0.00000
      7      11.8375      0.00000
      8      13.2439      0.00000

 k-point    70 :      -0.2500    0.4167    0.1667
  band No.  band energies     occupation 
      1      -2.1580      2.00000
      2      -0.5630      2.00000
      3       2.0032      2.00000
      4       3.2163      2.00000
      5       9.8492      0.00000
      6      11.0599      0.00000
      7      11.6820      0.00000
      8      12.9842      0.00000

 k-point    71 :      -0.3333    0.5000    0.1667
  band No.  band energies     occupation 
      1      -1.3743      2.00000
      2      -1.3743      2.00000
      3       2.6094      2.00000
      4       2.6094      2.00000
      5       9.2535      0.00000
      6       9.2535      0.00000
      7      13.5266      0.00000
      8      13.5266      0.00000

 k-point    72 :      -0.2500    0.5000    0.2500
  band No.  band energies     occupation 
      1      -1.3208      2.00000
      2      -1.3208      2.00000
      3       2.3788      2.00000
      4       2.3788      2.00000
      5      10.7775      0.00000
      6      10.7775      0.00000
      7      11.7528      0.00000
      8      11.7528      0.00000


--------------------------------------------------------------------------------------------------------


 soft charge-density along one line, spin component           1
         0         1         2         3         4         5         6         7         8         9
 total charge-density along one line
 
 pseudopotential strength for first ion, spin component:           1
 18.337  -0.002   0.000   0.000   0.000  -0.000  -0.000  -0.000
 -0.002   0.006  -0.000  -0.000  -0.000   0.000   0.000   0.000
  0.000  -0.000   4.171  -0.000  -0.000  -0.005   0.000   0.000
  0.000  -0.000  -0.000   4.171  -0.000   0.000  -0.005   0.000
  0.000  -0.000  -0.000  -0.000   4.171   0.000   0.000  -0.005
 -0.000   0.000  -0.005   0.000   0.000   0.005  -0.000  -0.000
 -0.000   0.000   0.000  -0.005   0.000  -0.000   0.005  -0.000
 -0.000   0.000   0.000   0.000  -0.005  -0.000  -0.000   0.005
 total augmentation occupancy for first ion, spin component:           1
  1.484  -0.883   0.000   0.000   0.000   0.000   0.000   0.000
 -0.883   0.925   0.000   0.000   0.000   0.000   0.000   0.000
  0.000   0.000   1.078   0.000   0.000  -0.618   0.000   0.000
  0.000   0.000   0.000   1.078   0.000   0.000  -0.618   0.000
  0.000   0.000   0.000   0.000   1.078   0.000   0.000  -0.618
  0.000   0.000  -0.618   0.000   0.000   0.418   0.000   0.000
  0.000   0.000   0.000  -0.618   0.000   0.000   0.418   0.000
  0.000  -0.000   0.000   0.000  -0.618   0.000   0.000   0.418


------------------------ aborting loop because EDIFF is reached ----------------------------------------


    CHARGE:  cpu time    0.02: real time    0.02
    FORLOC:  cpu time    0.00: real time    0.01
    FORNL :  cpu time    0.03: real time    0.03
    STRESS:  cpu time    0.28: real time    0.28
    FORCOR:  cpu time    0.01: real time    0.01
    FORHAR:  cpu time    0.01: real time    0.01
    MIXING:  cpu time    0.00: real time    0.00
    OFIELD:  cpu time    0.00: real time    0.00

  FORCE on cell =-STRESS in cart. coord.  units (eV):
  Direction    XX          YY          ZZ          XY          YZ          ZX
  --------------------------------------------------------------------------------------
  Alpha Z     3.59412     3.59412     3.59412
  Ewald     -77.88584   -77.88584   -77.88584    -0.00000    -0.00000     0.00000
  Hartree     4.71387     4.71387     4.71387     0.00000     0.00000     0.00000
  E(xc)     -25.76923   -25.76923   -25.76923    -0.00000    -0.00000    -0.00000
  Local     -28.32577   -28.32577   -28.32577     0.00001     0.00001     0.00001
  n-local    80.20404    81.66566    75.81075     2.38513    -1.42620     0.60318
  augment   -11.69346   -11.69346   -11.69346    -0.00001    -0.00001    -0.00001
  Kinetic    60.58070    57.15991    57.24767     3.58091    -0.51767     1.06057
  Fock        0.00000     0.00000     0.00000     0.00000     0.00000     0.00000
  -------------------------------------------------------------------------------------
  Total       2.18994     2.18994     2.18994    -0.00000    -0.00000    -0.00000
  in kB      93.65284    93.65284    93.65284    -0.00000    -0.00000    -0.00000
  external pressure =       93.65 kB  Pullay stress =        0.00 kB


 VOLUME and BASIS-vectors are now :
 -----------------------------------------------------------------------------
  energy-cutoff  :      600.00
  volume of cell :       37.46
      direct lattice vectors                 reciprocal lattice vectors
     0.000000000  2.655811238  2.655811238    -0.188266392  0.188266392  0.188266392
     2.655811238  0.000000000  2.655811238     0.188266392 -0.188266392  0.188266392
     2.655811238  2.655811238  0.000000000     0.188266392  0.188266392 -0.188266392

  length of vectors
     3.755884272  3.755884272  3.755884272     0.326086957  0.326086957  0.326086957


 FORCES acting on ions
    electron-ion (+dipol)            ewald-force                    non-local-force                 convergence-correction
 -----------------------------------------------------------------------------------------------
   0.774E-07 0.774E-07 0.732E-07   -.163E-14 0.142E-14 -.436E-14   0.625E-16 0.278E-16 0.104E-16   0.163E-12 0.161E-12 0.161E-12
   -.774E-07 -.774E-07 -.732E-07   0.168E-14 -.163E-14 0.423E-14   -.139E-16 -.278E-16 -.486E-16   -.159E-12 -.157E-12 -.157E-12
 -----------------------------------------------------------------------------------------------
   -.564E-13 -.182E-14 0.497E-13   0.497E-16 -.209E-15 -.122E-15   0.486E-16 0.000E+00 -.382E-16   0.409E-14 0.337E-14 0.401E-14
 
 
 POSITION                                       TOTAL-FORCE (eV/Angst)
 -----------------------------------------------------------------------------------
      0.00000      0.00000      0.00000        -0.000000     -0.000000     -0.000000
      1.32791      1.32791      1.32791         0.000000      0.000000      0.000000
 -----------------------------------------------------------------------------------
    total drift:                               -0.000000      0.000000      0.000000


--------------------------------------------------------------------------------------------------------



  FREE ENERGIE OF THE ION-ELECTRON SYSTEM (eV)
  ---------------------------------------------------
  free  energy   TOTEN  =       -10.75711010 eV

  energy  without entropy=      -10.75710975  energy(sigma->0) =      -10.75710992
 


--------------------------------------------------------------------------------------------------------


    POTLOK:  cpu time    0.02: real time    0.02


--------------------------------------------------------------------------------------------------------


 writing wavefunctions
     LOOP+:  cpu time    6.02: real time    6.66
    4ORBIT:  cpu time    0.00: real time    0.00

 total amount of memory used by VASP on root node    41909. kBytes
========================================================================

   base      :      30000. kBytes
   nonl-proj :       5957. kBytes
   fftplans  :       1025. kBytes
   grid      :       1926. kBytes
   one-center:          6. kBytes
   wavefun   :       2995. kBytes
 
  
  
 General timing and accounting informations for this job:
 ========================================================
  
                  Total CPU time used (sec):        6.328
                            User time (sec):        6.116
                          System time (sec):        0.212
                         Elapsed time (sec):        7.069
  
                   Maximum memory used (kb):       47872.
                   Average memory used (kb):           0.
  
                          Minor page faults:         6802
                          Major page faults:            6
                 Voluntary context switches:          613
