 vasp.5.3.5 31Mar14 (build Jun 01 2017 17:55:53) complex                        
  
 executed on             LinuxIFC date 2020.11.10  15:19:13
 running on    4 total cores
 distrk:  each k-point on    4 cores,    1 groups
 distr:  one band on NCORES_PER_BAND=   1 cores,    4 groups


--------------------------------------------------------------------------------------------------------


 INCAR:
 POTCAR:   PAW_PBE Si 05Jan2001                   
 POTCAR:   PAW_PBE Si 05Jan2001                   
   VRHFIN =Si: s2p2                                                             
   LEXCH  = PE                                                                  
   EATOM  =   103.0669 eV,    7.5752 Ry                                         
                                                                                
   TITEL  = PAW_PBE Si 05Jan2001                                                
   LULTRA =        F    use ultrasoft PP ?                                      
   IUNSCR =        1    unscreen: 0-lin 1-nonlin 2-no                           
   RPACOR =    1.500    partial core radius                                     
   POMASS =   28.085; ZVAL   =    4.000    mass and valenz                      
   RCORE  =    1.900    outmost cutoff radius                                   
   RWIGS  =    2.480; RWIGS  =    1.312    wigner-seitz radius (au A)           
   ENMAX  =  245.345; ENMIN  =  184.009 eV                                      
   ICORE  =        2    local potential                                         
   LCOR   =        T    correct aug charges                                     
   LPAW   =        T    paw PP                                                  
   EAUG   =  322.069                                                            
   DEXC   =    -.007                                                            
   RMAX   =    2.944    core radius for proj-oper                               
   RAUG   =    1.300    factor for augmentation sphere                          
   RDEP   =    1.993    radius for radial grids                                 
   QCUT   =   -4.246; QGAM   =    8.493    optimization parameters              
                                                                                
   Description                                                                  
     l     E      TYP  RCUT    TYP  RCUT                                        
     0   .000     23  1.900                                                     
     0   .000     23  1.900                                                     
     1   .000     23  1.900                                                     
     1   .000     23  1.900                                                     
     2   .000      7  1.900                                                     
  local pseudopotential read in
  partial core-charges read in
  atomic valenz-charges read in
  non local Contribution for L=           0  read in
    real space projection operators read in
  non local Contribution for L=           0  read in
    real space projection operators read in
  non local Contribution for L=           1  read in
    real space projection operators read in
  non local Contribution for L=           1  read in
    real space projection operators read in
    PAW grid and wavefunctions read in
 
   number of l-projection  operators is LMAX  =           4
   number of lm-projection operators is LMMAX =           8
 
 PAW_PBE Si 05Jan2001                   :
 energy of atom  1       EATOM= -103.0669
 kinetic energy error for atom=    0.0003 (will be added to EATOM!!)
 
 
 POSCAR: Si
  positions in direct lattice
  velocities in cartesian coordinates
  No initial velocities read in
 exchange correlation table for  LEXCH =        8
   RHO(1)=    0.500       N(1)  =     2000
   RHO(2)=  100.500       N(2)  =     4000
 


--------------------------------------------------------------------------------------------------------


 ion  position               nearest neighbor table
   1  0.000  0.000  0.000-   2 2.85   2 2.85   2 2.85   2 2.85
   2  0.250  0.250  0.250-   1 2.85   1 2.85   1 2.85   1 2.85
 
  LATTYP: Found a face centered cubic cell.
 ALAT       =     6.5817930688
  
  Lattice vectors:
  
 A1 = (   0.0000000000,   3.2908965344,   3.2908965344)
 A2 = (   3.2908965344,   0.0000000000,   3.2908965344)
 A3 = (   3.2908965344,   3.2908965344,   0.0000000000)


Analysis of symmetry for initial positions (statically):
=====================================================================
 Subroutine PRICEL returns:
 Original cell was already a primitive cell.
 

 Routine SETGRP: Setting up the symmetry group for a 
 face centered cubic supercell.


 Subroutine GETGRP returns: Found 48 space group operations
 (whereof 24 operations were pure point group operations)
 out of a pool of 48 trial point group operations.


The static configuration has the point symmetry T_d .
 The point group associated with its full space group is O_h .


Analysis of symmetry for dynamics (positions and initial velocities):
=====================================================================
 Subroutine PRICEL returns:
 Original cell was already a primitive cell.
 

 Routine SETGRP: Setting up the symmetry group for a 
 face centered cubic supercell.


 Subroutine GETGRP returns: Found 48 space group operations
 (whereof 24 operations were pure point group operations)
 out of a pool of 48 trial point group operations.


The dynamic configuration has the point symmetry T_d .
 The point group associated with its full space group is O_h .


Analysis of constrained symmetry for selective dynamics:
=====================================================================
 Subroutine PRICEL returns:
 Original cell was already a primitive cell.
 

 Routine SETGRP: Setting up the symmetry group for a 
 face centered cubic supercell.


 Subroutine GETGRP returns: Found 48 space group operations
 (whereof 24 operations were pure point group operations)
 out of a pool of 48 trial point group operations.


The constrained configuration has the point symmetry T_d .
 The point group associated with its full space group is O_h .
 
 
 KPOINTS: Gamma centered Monkhorst-Pack           

Automatic generation of k-mesh.
Space group operators:
 irot       det(A)        alpha          n_x          n_y          n_z        tau_x        tau_y        tau_z
    1     1.000000     0.000000     1.000000     0.000000     0.000000     0.000000     0.000000     0.000000
    2     1.000000   120.000000    -0.577350    -0.577350    -0.577350     0.000000     0.000000     0.000000
    3     1.000000   120.000000     0.577350     0.577350     0.577350     0.000000     0.000000     0.000000
    4    -1.000000    90.000000     0.000000     0.000000    -1.000000     0.000000     0.000000     0.000000
    5    -1.000000   180.000000     0.000000     0.707107     0.707107     0.000000     0.000000     0.000000
    6    -1.000000    90.000000     0.000000     1.000000     0.000000     0.000000     0.000000     0.000000
    7     1.000000   180.000000     0.000000     0.000000     1.000000     0.000000     0.000000     0.000000
    8     1.000000   120.000000    -0.577350     0.577350     0.577350     0.000000     0.000000     0.000000
    9     1.000000   120.000000    -0.577350     0.577350    -0.577350     0.000000     0.000000     0.000000
   10    -1.000000    90.000000     0.000000     0.000000     1.000000     0.000000     0.000000     0.000000
   11    -1.000000    90.000000    -1.000000     0.000000     0.000000     0.000000     0.000000     0.000000
   12    -1.000000   180.000000     0.707107     0.000000     0.707107     0.000000     0.000000     0.000000
   13     1.000000   120.000000     0.577350    -0.577350     0.577350     0.000000     0.000000     0.000000
   14     1.000000   120.000000    -0.577350    -0.577350     0.577350     0.000000     0.000000     0.000000
   15     1.000000   180.000000     1.000000     0.000000     0.000000     0.000000     0.000000     0.000000
   16    -1.000000    90.000000     0.000000    -1.000000     0.000000     0.000000     0.000000     0.000000
   17    -1.000000   180.000000     0.707107     0.707107     0.000000     0.000000     0.000000     0.000000
   18    -1.000000    90.000000     1.000000     0.000000     0.000000     0.000000     0.000000     0.000000
   19     1.000000   120.000000     0.577350    -0.577350    -0.577350     0.000000     0.000000     0.000000
   20     1.000000   180.000000     0.000000     1.000000     0.000000     0.000000     0.000000     0.000000
   21     1.000000   120.000000     0.577350     0.577350    -0.577350     0.000000     0.000000     0.000000
   22    -1.000000   180.000000     0.000000    -0.707107     0.707107     0.000000     0.000000     0.000000
   23    -1.000000   180.000000     0.707107    -0.707107     0.000000     0.000000     0.000000     0.000000
   24    -1.000000   180.000000     0.707107     0.000000    -0.707107     0.000000     0.000000     0.000000
   25    -1.000000     0.000000     1.000000     0.000000     0.000000     0.250000     0.250000     0.250000
   26    -1.000000   120.000000    -0.577350    -0.577350    -0.577350     0.250000     0.250000     0.250000
   27    -1.000000   120.000000     0.577350     0.577350     0.577350     0.250000     0.250000     0.250000
   28     1.000000    90.000000     0.000000     0.000000    -1.000000     0.250000     0.250000     0.250000
   29     1.000000   180.000000     0.000000     0.707107     0.707107     0.250000     0.250000     0.250000
   30     1.000000    90.000000     0.000000     1.000000     0.000000     0.250000     0.250000     0.250000
   31    -1.000000   180.000000     0.000000     0.000000     1.000000     0.250000     0.250000     0.250000
   32    -1.000000   120.000000    -0.577350     0.577350     0.577350     0.250000     0.250000     0.250000
   33    -1.000000   120.000000    -0.577350     0.577350    -0.577350     0.250000     0.250000     0.250000
   34     1.000000    90.000000     0.000000     0.000000     1.000000     0.250000     0.250000     0.250000
   35     1.000000    90.000000    -1.000000     0.000000     0.000000     0.250000     0.250000     0.250000
   36     1.000000   180.000000     0.707107     0.000000     0.707107     0.250000     0.250000     0.250000
   37    -1.000000   120.000000     0.577350    -0.577350     0.577350     0.250000     0.250000     0.250000
   38    -1.000000   120.000000    -0.577350    -0.577350     0.577350     0.250000     0.250000     0.250000
   39    -1.000000   180.000000     1.000000     0.000000     0.000000     0.250000     0.250000     0.250000
   40     1.000000    90.000000     0.000000    -1.000000     0.000000     0.250000     0.250000     0.250000
   41     1.000000   180.000000     0.707107     0.707107     0.000000     0.250000     0.250000     0.250000
   42     1.000000    90.000000     1.000000     0.000000     0.000000     0.250000     0.250000     0.250000
   43    -1.000000   120.000000     0.577350    -0.577350    -0.577350     0.250000     0.250000     0.250000
   44    -1.000000   180.000000     0.000000     1.000000     0.000000     0.250000     0.250000     0.250000
   45    -1.000000   120.000000     0.577350     0.577350    -0.577350     0.250000     0.250000     0.250000
   46     1.000000   180.000000     0.000000    -0.707107     0.707107     0.250000     0.250000     0.250000
   47     1.000000   180.000000     0.707107    -0.707107     0.000000     0.250000     0.250000     0.250000
   48     1.000000   180.000000     0.707107     0.000000    -0.707107     0.250000     0.250000     0.250000
 
 Subroutine IBZKPT returns following result:
 ===========================================
 
 Found     72 irreducible k-points:
 
 Following reciprocal coordinates:
            Coordinates               Weight
  0.000000  0.000000  0.000000      1.000000
  0.083333  0.000000  0.000000      8.000000
  0.166667  0.000000  0.000000      8.000000
  0.250000  0.000000  0.000000      8.000000
  0.333333  0.000000  0.000000      8.000000
  0.416667  0.000000  0.000000      8.000000
  0.500000  0.000000  0.000000      4.000000
  0.083333  0.083333  0.000000      6.000000
  0.166667  0.083333  0.000000     24.000000
  0.250000  0.083333  0.000000     24.000000
  0.333333  0.083333  0.000000     24.000000
  0.416667  0.083333  0.000000     24.000000
  0.500000  0.083333  0.000000     24.000000
 -0.416667  0.083333  0.000000     24.000000
 -0.333333  0.083333  0.000000     24.000000
 -0.250000  0.083333  0.000000     24.000000
 -0.166667  0.083333  0.000000     24.000000
 -0.083333  0.083333  0.000000     12.000000
  0.166667  0.166667  0.000000      6.000000
  0.250000  0.166667  0.000000     24.000000
  0.333333  0.166667  0.000000     24.000000
  0.416667  0.166667  0.000000     24.000000
  0.500000  0.166667  0.000000     24.000000
 -0.416667  0.166667  0.000000     24.000000
 -0.333333  0.166667  0.000000     24.000000
 -0.250000  0.166667  0.000000     24.000000
 -0.166667  0.166667  0.000000     12.000000
  0.250000  0.250000  0.000000      6.000000
  0.333333  0.250000  0.000000     24.000000
  0.416667  0.250000  0.000000     24.000000
  0.500000  0.250000  0.000000     24.000000
 -0.416667  0.250000  0.000000     24.000000
 -0.333333  0.250000  0.000000     24.000000
 -0.250000  0.250000  0.000000     12.000000
  0.333333  0.333333  0.000000      6.000000
  0.416667  0.333333  0.000000     24.000000
  0.500000  0.333333  0.000000     24.000000
 -0.416667  0.333333  0.000000     24.000000
 -0.333333  0.333333  0.000000     12.000000
  0.416667  0.416667  0.000000      6.000000
  0.500000  0.416667  0.000000     24.000000
 -0.416667  0.416667  0.000000     12.000000
  0.500000  0.500000  0.000000      3.000000
  0.250000  0.166667  0.083333     24.000000
  0.333333  0.166667  0.083333     48.000000
  0.416667  0.166667  0.083333     48.000000
  0.500000  0.166667  0.083333     48.000000
 -0.416667  0.166667  0.083333     24.000000
  0.333333  0.250000  0.083333     24.000000
  0.416667  0.250000  0.083333     48.000000
  0.500000  0.250000  0.083333     48.000000
 -0.416667  0.250000  0.083333     48.000000
 -0.333333  0.250000  0.083333     48.000000
 -0.250000  0.250000  0.083333     48.000000
 -0.166667  0.250000  0.083333     24.000000
  0.416667  0.333333  0.083333     24.000000
  0.500000  0.333333  0.083333     48.000000
 -0.416667  0.333333  0.083333     48.000000
 -0.333333  0.333333  0.083333     48.000000
 -0.250000  0.333333  0.083333     24.000000
  0.500000  0.416667  0.083333     24.000000
 -0.416667  0.416667  0.083333     48.000000
 -0.333333  0.416667  0.083333     24.000000
 -0.416667  0.500000  0.083333     12.000000
  0.500000  0.333333  0.166667     24.000000
 -0.416667  0.333333  0.166667     48.000000
 -0.333333  0.333333  0.166667     24.000000
 -0.416667  0.416667  0.166667     24.000000
 -0.333333  0.416667  0.166667     48.000000
 -0.250000  0.416667  0.166667     24.000000
 -0.333333  0.500000  0.166667     12.000000
 -0.250000  0.500000  0.250000      6.000000
 
 Following cartesian coordinates:
            Coordinates               Weight
  0.000000  0.000000  0.000000      1.000000
 -0.083333  0.083333  0.083333      8.000000
 -0.166667  0.166667  0.166667      8.000000
 -0.250000  0.250000  0.250000      8.000000
 -0.333333  0.333333  0.333333      8.000000
 -0.416667  0.416667  0.416667      8.000000
 -0.500000  0.500000  0.500000      4.000000
  0.000000  0.000000  0.166667      6.000000
 -0.083333  0.083333  0.250000     24.000000
 -0.166667  0.166667  0.333333     24.000000
 -0.250000  0.250000  0.416667     24.000000
 -0.333333  0.333333  0.500000     24.000000
 -0.416667  0.416667  0.583333     24.000000
  0.500000 -0.500000 -0.333333     24.000000
  0.416667 -0.416667 -0.250000     24.000000
  0.333333 -0.333333 -0.166667     24.000000
  0.250000 -0.250000 -0.083333     24.000000
  0.166667 -0.166667  0.000000     12.000000
  0.000000  0.000000  0.333333      6.000000
 -0.083333  0.083333  0.416667     24.000000
 -0.166667  0.166667  0.500000     24.000000
 -0.250000  0.250000  0.583333     24.000000
 -0.333333  0.333333  0.666667     24.000000
  0.583333 -0.583333 -0.250000     24.000000
  0.500000 -0.500000 -0.166667     24.000000
  0.416667 -0.416667 -0.083333     24.000000
  0.333333 -0.333333  0.000000     12.000000
  0.000000  0.000000  0.500000      6.000000
 -0.083333  0.083333  0.583333     24.000000
 -0.166667  0.166667  0.666667     24.000000
 -0.250000  0.250000  0.750000     24.000000
  0.666667 -0.666667 -0.166667     24.000000
  0.583333 -0.583333 -0.083333     24.000000
  0.500000 -0.500000  0.000000     12.000000
  0.000000  0.000000  0.666667      6.000000
 -0.083333  0.083333  0.750000     24.000000
 -0.166667  0.166667  0.833333     24.000000
  0.750000 -0.750000 -0.083333     24.000000
  0.666667 -0.666667  0.000000     12.000000
  0.000000  0.000000  0.833333      6.000000
 -0.083333  0.083333  0.916667     24.000000
  0.833333 -0.833333  0.000000     12.000000
  0.000000  0.000000  1.000000      3.000000
  0.000000  0.166667  0.333333     24.000000
 -0.083333  0.250000  0.416667     48.000000
 -0.166667  0.333333  0.500000     48.000000
 -0.250000  0.416667  0.583333     48.000000
  0.666667 -0.500000 -0.333333     24.000000
  0.000000  0.166667  0.500000     24.000000
 -0.083333  0.250000  0.583333     48.000000
 -0.166667  0.333333  0.666667     48.000000
  0.750000 -0.583333 -0.250000     48.000000
  0.666667 -0.500000 -0.166667     48.000000
  0.583333 -0.416667 -0.083333     48.000000
  0.500000 -0.333333  0.000000     24.000000
  0.000000  0.166667  0.666667     24.000000
 -0.083333  0.250000  0.750000     48.000000
  0.833333 -0.666667 -0.166667     48.000000
  0.750000 -0.583333 -0.083333     48.000000
  0.666667 -0.500000  0.000000     24.000000
  0.000000  0.166667  0.833333     24.000000
  0.916667 -0.750000 -0.083333     48.000000
  0.833333 -0.666667  0.000000     24.000000
  1.000000 -0.833333  0.000000     12.000000
  0.000000  0.333333  0.666667     24.000000
  0.916667 -0.583333 -0.250000     48.000000
  0.833333 -0.500000 -0.166667     24.000000
  1.000000 -0.666667 -0.166667     24.000000
  0.916667 -0.583333 -0.083333     48.000000
  0.833333 -0.500000  0.000000     24.000000
  1.000000 -0.666667  0.000000     12.000000
  1.000000 -0.500000  0.000000      6.000000
 


--------------------------------------------------------------------------------------------------------




 Dimension of arrays:
   k-points           NKPTS =     72   k-points in BZ     NKDIM =     72   number of bands    NBANDS=      8
   number of dos      NEDOS =    301   number of ions     NIONS =      2
   non local maximal  LDIM  =      4   non local SUM 2l+1 LMDIM =      8
   total plane-waves  NPLWV =  21952
   max r-space proj   IRMAX =      1   max aug-charges    IRDMAX=  10495
   dimension x,y,z NGX =    28 NGY =   28 NGZ =   28
   dimension x,y,z NGXF=    56 NGYF=   56 NGZF=   56
   support grid    NGXF=    56 NGYF=   56 NGZF=   56
   ions per type =               2
 NGX,Y,Z   is equivalent  to a cutoff of  10.00, 10.00, 10.00 a.u.
 NGXF,Y,Z  is equivalent  to a cutoff of  20.00, 20.00, 20.00 a.u.


 I would recommend the setting:
   dimension x,y,z NGX =    28 NGY =   28 NGZ =   28
 SYSTEM =  Si
 POSCAR =  Si

 Startparameter for this run:
   NWRITE =      2    write-flag & timer
   PREC   = normal    normal or accurate (medium, high low for compatibility)
   ISTART =      0    job   : 0-new  1-cont  2-samecut
   ICHARG =      2    charge: 1-file 2-atom 10-const
   ISPIN  =      1    spin polarized calculation?
   LNONCOLLINEAR =      F non collinear calculations
   LSORBIT =      F    spin-orbit coupling
   INIWAV =      1    electr: 0-lowe 1-rand  2-diag
   LASPH  =      F    aspherical Exc in radial PAW
   METAGGA=      F    non-selfconsistent MetaGGA calc.

 Electronic Relaxation 1
   ENCUT  =  600.0 eV  44.10 Ry    6.64 a.u.   9.30  9.30  9.30*2*pi/ulx,y,z
   ENINI  =  600.0     initial cutoff
   ENAUG  = 1200.0 eV  augmentation charge cutoff
   NELM   =    500;   NELMIN=  2; NELMDL= -5     # of ELM steps 
   EDIFF  = 0.1E-09   stopping-criterion for ELM
   LREAL  =      F    real-space projection
   NLSPLINE    = F    spline interpolate recip. space projectors
   LCOMPAT=      F    compatible to vasp.4.4
   GGA_COMPAT  = T    GGA compatible to vasp.4.4-vasp.4.6
   LMAXPAW     = -100 max onsite density
   LMAXMIX     =    2 max onsite mixed and CHGCAR
   VOSKOWN=      0    Vosko Wilk Nusair interpolation
   ROPT   =    0.00000
 Ionic relaxation
   EDIFFG = 0.1E-08   stopping-criterion for IOM
   NSW    =      0    number of steps for IOM
   NBLOCK =      1;   KBLOCK =      1    inner block; outer block 
   IBRION =     -1    ionic relax: 0-MD 1-quasi-New 2-CG
   NFREE  =      0    steps in history (QN), initial steepest desc. (CG)
   ISIF   =      2    stress and relaxation
   IWAVPR =     10    prediction:  0-non 1-charg 2-wave 3-comb
   ISYM   =      2    0-nonsym 1-usesym 2-fastsym
   LCORR  =      T    Harris-Foulkes like correction to forces

   POTIM  = 0.5000    time-step for ionic-motion
   TEIN   =    0.0    initial temperature
   TEBEG  =    0.0;   TEEND  =   0.0 temperature during run
   SMASS  =  -3.00    Nose mass-parameter (am)
   estimated Nose-frequenzy (Omega)   =  0.10E-29 period in steps =****** mass=  -0.495E-27a.u.
   SCALEE = 1.0000    scale energy and forces
   NPACO  =    256;   APACO  = 16.0  distance and # of slots for P.C.
   PSTRESS=    0.0 pullay stress

  Mass of Ions in am
   POMASS =  28.09
  Ionic Valenz
   ZVAL   =   4.00
  Atomic Wigner-Seitz radii
   RWIGS  =  -1.00
  virtual crystal weights 
   VCA    =   1.00
   NELECT =       8.0000    total number of electrons
   NUPDOWN=      -1.0000    fix difference up-down

 DOS related values:
   EMIN   =  10.00;   EMAX   =-10.00  energy-range for DOS
   EFERMI =   0.00
   ISMEAR =    -1;   SIGMA  =   0.03  broadening in eV -4-tet -1-fermi 0-gaus

 Electronic relaxation 2 (details)
   IALGO  =     38    algorithm
   LDIAG  =      T    sub-space diagonalisation (order eigenvalues)
   LSUBROT=      F    optimize rotation matrix (better conditioning)
   TURBO    =      0    0=normal 1=particle mesh
   IRESTART =      0    0=no restart 2=restart with 2 vectors
   NREBOOT  =      0    no. of reboots
   NMIN     =      0    reboot dimension
   EREF     =   0.00    reference energy to select bands
   IMIX   =      4    mixing-type and parameters
     AMIX     =   0.40;   BMIX     =  1.00
     AMIX_MAG =   1.60;   BMIX_MAG =  1.00
     AMIN     =   0.10
     WC   =   100.;   INIMIX=   1;  MIXPRE=   1;  MAXMIX= -45

 Intra band minimization:
   WEIMIN = 0.0000     energy-eigenvalue tresh-hold
   EBREAK =  0.31E-11  absolut break condition
   DEPER  =   0.30     relativ break condition  

   TIME   =   0.40     timestep for ELM

  volume/ion in A,a.u.               =      35.64       240.51
  Fermi-wavevector in a.u.,A,eV,Ry     =   0.789673  1.492266  8.484367  0.623583
  Thomas-Fermi vector in A             =   1.894862
 
 Write flags
   LWAVE  =      T    write WAVECAR
   LCHARG =      T    write CHGCAR
   LVTOT  =      F    write LOCPOT, total local potential
   LVHAR  =      F    write LOCPOT, Hartree potential only
   LELF   =      F    write electronic localiz. function (ELF)
   LORBIT =      0    0 simple, 1 ext, 2 COOP (PROOUT)


 Dipole corrections
   LMONO  =      F    monopole corrections only (constant potential shift)
   LDIPOL =      F    correct potential (dipole corrections)
   IDIPOL =      0    1-x, 2-y, 3-z, 4-all directions 
   EPSILON=  1.0000000 bulk dielectric constant

 Exchange correlation treatment:
   GGA     =    PE    GGA type
   LEXCH   =     8    internal setting for exchange type
   VOSKOWN=      0    Vosko Wilk Nusair interpolation
   LHFCALC =     F    Hartree Fock is set to
   LHFONE  =     F    Hartree Fock one center treatment
   AEXX    =    0.0000 exact exchange contribution

 Linear response parameters
   LEPSILON=     F    determine dielectric tensor
   LRPA    =     F    only Hartree local field effects (RPA)
   LNABLA  =     F    use nabla operator in PAW spheres
   LVEL    =     F    velocity operator in full k-point grid
   LINTERFAST=   F  fast interpolation
   KINTER  =     0    interpolate to denser k-point grid
   CSHIFT  =0.1000    complex shift for real part using Kramers Kronig
   OMEGAMAX=  -1.0    maximum frequency
   DEG_THRESHOLD= 0.2000000E-02 threshold for treating states as degnerate
   RTIME   =    0.100 relaxation time in fs

 Orbital magnetization related:
   ORBITALMAG=     F  switch on orbital magnetization
   LCHIMAG   =     F  perturbation theory with respect to B field
   DQ        =  0.001000  dq finite difference perturbation B field



--------------------------------------------------------------------------------------------------------


 Static calculation
 charge density and potential will be updated during run
 non-spin polarized calculation
 Variant of blocked Davidson
 Davidson routine will perform the subspace rotation
 perform sub-space diagonalisation
    after iterative eigenvector-optimisation
 modified Broyden-mixing scheme, WC =      100.0
 initial mixing is a Kerker type mixing with AMIX =  0.4000 and BMIX =      1.0000
 Hartree-type preconditioning will be used
 using additional bands            4
 reciprocal scheme for non local part
 use partial core corrections
 calculate Harris-corrections to forces 
   (improved forces if not selfconsistent)
 use gradient corrections 
 use of overlap-Matrix (Vanderbilt PP)
 Fermi-smearing in eV        SIGMA  =   0.03


--------------------------------------------------------------------------------------------------------


  energy-cutoff  :      600.00
  volume of cell :       71.28
      direct lattice vectors                 reciprocal lattice vectors
     0.000000000  3.290896534  3.290896534    -0.151934281  0.151934281  0.151934281
     3.290896534  0.000000000  3.290896534     0.151934281 -0.151934281  0.151934281
     3.290896534  3.290896534  0.000000000     0.151934281  0.151934281 -0.151934281

  length of vectors
     4.654030511  4.654030511  4.654030511     0.263157895  0.263157895  0.263157895


 
 k-points in units of 2pi/SCALE and weight: Gamma centered Monkhorst-Pack           
   0.00000000  0.00000000  0.00000000       0.001
  -0.08333333  0.08333333  0.08333333       0.005
  -0.16666667  0.16666667  0.16666667       0.005
  -0.25000000  0.25000000  0.25000000       0.005
  -0.33333333  0.33333333  0.33333333       0.005
  -0.41666667  0.41666667  0.41666667       0.005
  -0.50000000  0.50000000  0.50000000       0.002
   0.00000000  0.00000000  0.16666667       0.003
  -0.08333333  0.08333333  0.25000000       0.014
  -0.16666667  0.16666667  0.33333333       0.014
  -0.25000000  0.25000000  0.41666667       0.014
  -0.33333333  0.33333333  0.50000000       0.014
  -0.41666667  0.41666667  0.58333333       0.014
   0.50000000 -0.50000000 -0.33333333       0.014
   0.41666667 -0.41666667 -0.25000000       0.014
   0.33333333 -0.33333333 -0.16666667       0.014
   0.25000000 -0.25000000 -0.08333333       0.014
   0.16666667 -0.16666667  0.00000000       0.007
   0.00000000  0.00000000  0.33333333       0.003
  -0.08333333  0.08333333  0.41666667       0.014
  -0.16666667  0.16666667  0.50000000       0.014
  -0.25000000  0.25000000  0.58333333       0.014
  -0.33333333  0.33333333  0.66666667       0.014
   0.58333333 -0.58333333 -0.25000000       0.014
   0.50000000 -0.50000000 -0.16666667       0.014
   0.41666667 -0.41666667 -0.08333333       0.014
   0.33333333 -0.33333333  0.00000000       0.007
   0.00000000  0.00000000  0.50000000       0.003
  -0.08333333  0.08333333  0.58333333       0.014
  -0.16666667  0.16666667  0.66666667       0.014
  -0.25000000  0.25000000  0.75000000       0.014
   0.66666667 -0.66666667 -0.16666667       0.014
   0.58333333 -0.58333333 -0.08333333       0.014
   0.50000000 -0.50000000  0.00000000       0.007
   0.00000000  0.00000000  0.66666667       0.003
  -0.08333333  0.08333333  0.75000000       0.014
  -0.16666667  0.16666667  0.83333333       0.014
   0.75000000 -0.75000000 -0.08333333       0.014
   0.66666667 -0.66666667  0.00000000       0.007
   0.00000000  0.00000000  0.83333333       0.003
  -0.08333333  0.08333333  0.91666667       0.014
   0.83333333 -0.83333333  0.00000000       0.007
   0.00000000  0.00000000  1.00000000       0.002
   0.00000000  0.16666667  0.33333333       0.014
  -0.08333333  0.25000000  0.41666667       0.028
  -0.16666667  0.33333333  0.50000000       0.028
  -0.25000000  0.41666667  0.58333333       0.028
   0.66666667 -0.50000000 -0.33333333       0.014
   0.00000000  0.16666667  0.50000000       0.014
  -0.08333333  0.25000000  0.58333333       0.028
  -0.16666667  0.33333333  0.66666667       0.028
   0.75000000 -0.58333333 -0.25000000       0.028
   0.66666667 -0.50000000 -0.16666667       0.028
   0.58333333 -0.41666667 -0.08333333       0.028
   0.50000000 -0.33333333  0.00000000       0.014
   0.00000000  0.16666667  0.66666667       0.014
  -0.08333333  0.25000000  0.75000000       0.028
   0.83333333 -0.66666667 -0.16666667       0.028
   0.75000000 -0.58333333 -0.08333333       0.028
   0.66666667 -0.50000000  0.00000000       0.014
   0.00000000  0.16666667  0.83333333       0.014
   0.91666667 -0.75000000 -0.08333333       0.028
   0.83333333 -0.66666667  0.00000000       0.014
   1.00000000 -0.83333333  0.00000000       0.007
   0.00000000  0.33333333  0.66666667       0.014
   0.91666667 -0.58333333 -0.25000000       0.028
   0.83333333 -0.50000000 -0.16666667       0.014
   1.00000000 -0.66666667 -0.16666667       0.014
   0.91666667 -0.58333333 -0.08333333       0.028
   0.83333333 -0.50000000  0.00000000       0.014
   1.00000000 -0.66666667  0.00000000       0.007
   1.00000000 -0.50000000  0.00000000       0.003
 
 k-points in reciprocal lattice and weights: Gamma centered Monkhorst-Pack           
   0.00000000  0.00000000  0.00000000       0.001
   0.08333333  0.00000000  0.00000000       0.005
   0.16666667  0.00000000  0.00000000       0.005
   0.25000000  0.00000000  0.00000000       0.005
   0.33333333  0.00000000  0.00000000       0.005
   0.41666667  0.00000000  0.00000000       0.005
   0.50000000  0.00000000  0.00000000       0.002
   0.08333333  0.08333333  0.00000000       0.003
   0.16666667  0.08333333  0.00000000       0.014
   0.25000000  0.08333333  0.00000000       0.014
   0.33333333  0.08333333  0.00000000       0.014
   0.41666667  0.08333333  0.00000000       0.014
   0.50000000  0.08333333  0.00000000       0.014
  -0.41666667  0.08333333  0.00000000       0.014
  -0.33333333  0.08333333  0.00000000       0.014
  -0.25000000  0.08333333  0.00000000       0.014
  -0.16666667  0.08333333  0.00000000       0.014
  -0.08333333  0.08333333  0.00000000       0.007
   0.16666667  0.16666667  0.00000000       0.003
   0.25000000  0.16666667  0.00000000       0.014
   0.33333333  0.16666667  0.00000000       0.014
   0.41666667  0.16666667  0.00000000       0.014
   0.50000000  0.16666667  0.00000000       0.014
  -0.41666667  0.16666667  0.00000000       0.014
  -0.33333333  0.16666667  0.00000000       0.014
  -0.25000000  0.16666667  0.00000000       0.014
  -0.16666667  0.16666667  0.00000000       0.007
   0.25000000  0.25000000  0.00000000       0.003
   0.33333333  0.25000000  0.00000000       0.014
   0.41666667  0.25000000  0.00000000       0.014
   0.50000000  0.25000000  0.00000000       0.014
  -0.41666667  0.25000000  0.00000000       0.014
  -0.33333333  0.25000000  0.00000000       0.014
  -0.25000000  0.25000000  0.00000000       0.007
   0.33333333  0.33333333  0.00000000       0.003
   0.41666667  0.33333333  0.00000000       0.014
   0.50000000  0.33333333  0.00000000       0.014
  -0.41666667  0.33333333  0.00000000       0.014
  -0.33333333  0.33333333  0.00000000       0.007
   0.41666667  0.41666667  0.00000000       0.003
   0.50000000  0.41666667  0.00000000       0.014
  -0.41666667  0.41666667  0.00000000       0.007
   0.50000000  0.50000000  0.00000000       0.002
   0.25000000  0.16666667  0.08333333       0.014
   0.33333333  0.16666667  0.08333333       0.028
   0.41666667  0.16666667  0.08333333       0.028
   0.50000000  0.16666667  0.08333333       0.028
  -0.41666667  0.16666667  0.08333333       0.014
   0.33333333  0.25000000  0.08333333       0.014
   0.41666667  0.25000000  0.08333333       0.028
   0.50000000  0.25000000  0.08333333       0.028
  -0.41666667  0.25000000  0.08333333       0.028
  -0.33333333  0.25000000  0.08333333       0.028
  -0.25000000  0.25000000  0.08333333       0.028
  -0.16666667  0.25000000  0.08333333       0.014
   0.41666667  0.33333333  0.08333333       0.014
   0.50000000  0.33333333  0.08333333       0.028
  -0.41666667  0.33333333  0.08333333       0.028
  -0.33333333  0.33333333  0.08333333       0.028
  -0.25000000  0.33333333  0.08333333       0.014
   0.50000000  0.41666667  0.08333333       0.014
  -0.41666667  0.41666667  0.08333333       0.028
  -0.33333333  0.41666667  0.08333333       0.014
  -0.41666667  0.50000000  0.08333333       0.007
   0.50000000  0.33333333  0.16666667       0.014
  -0.41666667  0.33333333  0.16666667       0.028
  -0.33333333  0.33333333  0.16666667       0.014
  -0.41666667  0.41666667  0.16666667       0.014
  -0.33333333  0.41666667  0.16666667       0.028
  -0.25000000  0.41666667  0.16666667       0.014
  -0.33333333  0.50000000  0.16666667       0.007
  -0.25000000  0.50000000  0.25000000       0.003
 
 position of ions in fractional coordinates (direct lattice) 
   0.00000000  0.00000000  0.00000000
   0.25000000  0.25000000  0.25000000
 
 position of ions in cartesian coordinates  (Angst):
   0.00000000  0.00000000  0.00000000
   1.64544827  1.64544827  1.64544827
 


--------------------------------------------------------------------------------------------------------


 k-point  1 :   0.0000 0.0000 0.0000  plane waves:    2421
 k-point  2 :   0.0833 0.0000 0.0000  plane waves:    2376
 k-point  3 :   0.1667 0.0000 0.0000  plane waves:    2385
 k-point  4 :   0.2500 0.0000 0.0000  plane waves:    2385
 k-point  5 :   0.3333 0.0000 0.0000  plane waves:    2382
 k-point  6 :   0.4167 0.0000 0.0000  plane waves:    2383
 k-point  7 :   0.5000 0.0000 0.0000  plane waves:    2392
 k-point  8 :   0.0833 0.0833 0.0000  plane waves:    2381
 k-point  9 :   0.1667 0.0833 0.0000  plane waves:    2373
 k-point 10 :   0.2500 0.0833 0.0000  plane waves:    2375
 k-point 11 :   0.3333 0.0833 0.0000  plane waves:    2392
 k-point 12 :   0.4167 0.0833 0.0000  plane waves:    2393
 k-point 13 :   0.5000 0.0833 0.0000  plane waves:    2386
 k-point 14 :  -0.4167 0.0833 0.0000  plane waves:    2384
 k-point 15 :  -0.3333 0.0833 0.0000  plane waves:    2397
 k-point 16 :  -0.2500 0.0833 0.0000  plane waves:    2381
 k-point 17 :  -0.1667 0.0833 0.0000  plane waves:    2385
 k-point 18 :  -0.0833 0.0833 0.0000  plane waves:    2363
 k-point 19 :   0.1667 0.1667 0.0000  plane waves:    2373
 k-point 20 :   0.2500 0.1667 0.0000  plane waves:    2377
 k-point 21 :   0.3333 0.1667 0.0000  plane waves:    2376
 k-point 22 :   0.4167 0.1667 0.0000  plane waves:    2384
 k-point 23 :   0.5000 0.1667 0.0000  plane waves:    2376
 k-point 24 :  -0.4167 0.1667 0.0000  plane waves:    2373
 k-point 25 :  -0.3333 0.1667 0.0000  plane waves:    2385
 k-point 26 :  -0.2500 0.1667 0.0000  plane waves:    2377
 k-point 27 :  -0.1667 0.1667 0.0000  plane waves:    2391
 k-point 28 :   0.2500 0.2500 0.0000  plane waves:    2413
 k-point 29 :   0.3333 0.2500 0.0000  plane waves:    2382
 k-point 30 :   0.4167 0.2500 0.0000  plane waves:    2378
 k-point 31 :   0.5000 0.2500 0.0000  plane waves:    2376
 k-point 32 :  -0.4167 0.2500 0.0000  plane waves:    2370
 k-point 33 :  -0.3333 0.2500 0.0000  plane waves:    2363
 k-point 34 :  -0.2500 0.2500 0.0000  plane waves:    2385
 k-point 35 :   0.3333 0.3333 0.0000  plane waves:    2397
 k-point 36 :   0.4167 0.3333 0.0000  plane waves:    2382
 k-point 37 :   0.5000 0.3333 0.0000  plane waves:    2380
 k-point 38 :  -0.4167 0.3333 0.0000  plane waves:    2370
 k-point 39 :  -0.3333 0.3333 0.0000  plane waves:    2359
 k-point 40 :   0.4167 0.4167 0.0000  plane waves:    2377
 k-point 41 :   0.5000 0.4167 0.0000  plane waves:    2382
 k-point 42 :  -0.4167 0.4167 0.0000  plane waves:    2382
 k-point 43 :   0.5000 0.5000 0.0000  plane waves:    2346
 k-point 44 :   0.2500 0.1667 0.0833  plane waves:    2377
 k-point 45 :   0.3333 0.1667 0.0833  plane waves:    2379
 k-point 46 :   0.4167 0.1667 0.0833  plane waves:    2382
 k-point 47 :   0.5000 0.1667 0.0833  plane waves:    2385
 k-point 48 :  -0.4167 0.1667 0.0833  plane waves:    2370
 k-point 49 :   0.3333 0.2500 0.0833  plane waves:    2377
 k-point 50 :   0.4167 0.2500 0.0833  plane waves:    2381
 k-point 51 :   0.5000 0.2500 0.0833  plane waves:    2380
 k-point 52 :  -0.4167 0.2500 0.0833  plane waves:    2377
 k-point 53 :  -0.3333 0.2500 0.0833  plane waves:    2378
 k-point 54 :  -0.2500 0.2500 0.0833  plane waves:    2379
 k-point 55 :  -0.1667 0.2500 0.0833  plane waves:    2379
 k-point 56 :   0.4167 0.3333 0.0833  plane waves:    2387
 k-point 57 :   0.5000 0.3333 0.0833  plane waves:    2382
 k-point 58 :  -0.4167 0.3333 0.0833  plane waves:    2375
 k-point 59 :  -0.3333 0.3333 0.0833  plane waves:    2367
 k-point 60 :  -0.2500 0.3333 0.0833  plane waves:    2372
 k-point 61 :   0.5000 0.4167 0.0833  plane waves:    2380
 k-point 62 :  -0.4167 0.4167 0.0833  plane waves:    2380
 k-point 63 :  -0.3333 0.4167 0.0833  plane waves:    2364
 k-point 64 :  -0.4167 0.5000 0.0833  plane waves:    2378
 k-point 65 :   0.5000 0.3333 0.1667  plane waves:    2391
 k-point 66 :  -0.4167 0.3333 0.1667  plane waves:    2378
 k-point 67 :  -0.3333 0.3333 0.1667  plane waves:    2376
 k-point 68 :  -0.4167 0.4167 0.1667  plane waves:    2362
 k-point 69 :  -0.3333 0.4167 0.1667  plane waves:    2374
 k-point 70 :  -0.2500 0.4167 0.1667  plane waves:    2372
 k-point 71 :  -0.3333 0.5000 0.1667  plane waves:    2374
 k-point 72 :  -0.2500 0.5000 0.2500  plane waves:    2352

 maximum and minimum number of plane-waves per node :      2421     2346

 maximum number of plane-waves:      2421
 maximum index in each direction: 
   IXMAX=    9   IYMAX=    9   IZMAX=    9
   IXMIN=   -9   IYMIN=   -9   IZMIN=   -9

 WARNING: aliasing errors must be expected set NGX to  38 to avoid them
 WARNING: aliasing errors must be expected set NGY to  38 to avoid them
 WARNING: aliasing errors must be expected set NGZ to  38 to avoid them
 aliasing errors are usually negligible using standard VASP settings
 and one can safely disregard these warnings

 serial   3D FFT for wavefunctions
 parallel 3D FFT for charge:
    minimum data exchange during FFTs selected (reduces bandwidth)


 total amount of memory used by VASP on root node    51541. kBytes
========================================================================

   base      :      30000. kBytes
   nonl-proj :      11247. kBytes
   fftplans  :       1619. kBytes
   grid      :       3048. kBytes
   one-center:          6. kBytes
   wavefun   :       5621. kBytes
 
     INWAV:  cpu time    0.00: real time    0.00
 Broyden mixing: mesh for mixing (old mesh)
   NGX = 19   NGY = 19   NGZ = 19
  (NGX  = 56   NGY  = 56   NGZ  = 56)
  gives a total of   6859 points

 initial charge density was supplied:
 charge density of overlapping atoms calculated
 number of electron       8.0000000 magnetization 
 keeping initial charge density in first step


--------------------------------------------------------------------------------------------------------


 Maximum index for augmentation-charges         2510 (set IRDMAX)


--------------------------------------------------------------------------------------------------------


 First call to EWALD:  gamma=   0.427
 Maximum number of real-space cells 3x 3x 3
 Maximum number of reciprocal cells 3x 3x 3

 FEWALD executed in parallel
    FEWALD:  cpu time    0.00: real time    0.00


----------------------------------------- Iteration    1(   1)  ---------------------------------------


    POTLOK:  cpu time    0.03: real time    0.03
    SETDIJ:  cpu time    0.00: real time    0.00
     EDDAV:  cpu time    0.48: real time    0.48
       DOS:  cpu time    0.00: real time    0.00
    --------------------------------------------
      LOOP:  cpu time    0.50: real time    0.51

 eigenvalue-minimisations  :  1152
 total energy-change (2. order) : 0.9272484E+01  (-0.3058414E+03)
 number of electron       8.0000000 magnetization 
 augmentation part        8.0000000 magnetization 

 Free energy of the ion-electron system (eV)
  ---------------------------------------------------
  alpha Z        PSCENC =         1.88903994
  Ewald energy   TEWEN  =      -188.56562754
  -Hartree energ DENC   =       -21.27556112
  -exchange      EXHF   =         0.00000000
  -V(xc)+E(xc)   XCENC  =       -20.45884232
  PAW double counting   =        65.95520812      -30.76852678
  entropy T*S    EENTRO =        -0.00141110
  eigenvalues    EBANDS =        -3.63491395
  atomic energy  EATOM  =       206.13311910
  ---------------------------------------------------
  free energy    TOTEN  =         9.27248433 eV

  energy without entropy =        9.27389544  energy(sigma->0) =        9.27318988


--------------------------------------------------------------------------------------------------------




----------------------------------------- Iteration    1(   2)  ---------------------------------------


     EDDAV:  cpu time    0.69: real time    0.69
       DOS:  cpu time    0.00: real time    0.00
    --------------------------------------------
      LOOP:  cpu time    0.69: real time    0.69

 eigenvalue-minimisations  :  1792
 total energy-change (2. order) :-0.1753123E+02  (-0.1704522E+02)
 number of electron       8.0000000 magnetization 
 augmentation part        8.0000000 magnetization 

 Free energy of the ion-electron system (eV)
  ---------------------------------------------------
  alpha Z        PSCENC =         1.88903994
  Ewald energy   TEWEN  =      -188.56562754
  -Hartree energ DENC   =       -21.27556112
  -exchange      EXHF   =         0.00000000
  -V(xc)+E(xc)   XCENC  =       -20.45884232
  PAW double counting   =        65.95520812      -30.76852678
  entropy T*S    EENTRO =        -0.00094104
  eigenvalues    EBANDS =       -21.16661221
  atomic energy  EATOM  =       206.13311910
  ---------------------------------------------------
  free energy    TOTEN  =        -8.25874386 eV

  energy without entropy =       -8.25780282  energy(sigma->0) =       -8.25827334


--------------------------------------------------------------------------------------------------------




----------------------------------------- Iteration    1(   3)  ---------------------------------------


     EDDAV:  cpu time    0.62: real time    0.63
       DOS:  cpu time    0.00: real time    0.00
    --------------------------------------------
      LOOP:  cpu time    0.62: real time    0.63

 eigenvalue-minimisations  :  1592
 total energy-change (2. order) :-0.4236375E+00  (-0.4189043E+00)
 number of electron       8.0000000 magnetization 
 augmentation part        8.0000000 magnetization 

 Free energy of the ion-electron system (eV)
  ---------------------------------------------------
  alpha Z        PSCENC =         1.88903994
  Ewald energy   TEWEN  =      -188.56562754
  -Hartree energ DENC   =       -21.27556112
  -exchange      EXHF   =         0.00000000
  -V(xc)+E(xc)   XCENC  =       -20.45884232
  PAW double counting   =        65.95520812      -30.76852678
  entropy T*S    EENTRO =        -0.00071477
  eigenvalues    EBANDS =       -21.59047599
  atomic energy  EATOM  =       206.13311910
  ---------------------------------------------------
  free energy    TOTEN  =        -8.68238137 eV

  energy without entropy =       -8.68166660  energy(sigma->0) =       -8.68202398


--------------------------------------------------------------------------------------------------------




----------------------------------------- Iteration    1(   4)  ---------------------------------------


     EDDAV:  cpu time    0.64: real time    0.65
       DOS:  cpu time    0.00: real time    0.00
    --------------------------------------------
      LOOP:  cpu time    0.64: real time    0.66

 eigenvalue-minimisations  :  1680
 total energy-change (2. order) :-0.2392000E-02  (-0.2391981E-02)
 number of electron       8.0000000 magnetization 
 augmentation part        8.0000000 magnetization 

 Free energy of the ion-electron system (eV)
  ---------------------------------------------------
  alpha Z        PSCENC =         1.88903994
  Ewald energy   TEWEN  =      -188.56562754
  -Hartree energ DENC   =       -21.27556112
  -exchange      EXHF   =         0.00000000
  -V(xc)+E(xc)   XCENC  =       -20.45884232
  PAW double counting   =        65.95520812      -30.76852678
  entropy T*S    EENTRO =        -0.00071441
  eigenvalues    EBANDS =       -21.59286835
  atomic energy  EATOM  =       206.13311910
  ---------------------------------------------------
  free energy    TOTEN  =        -8.68477337 eV

  energy without entropy =       -8.68405896  energy(sigma->0) =       -8.68441617


--------------------------------------------------------------------------------------------------------




----------------------------------------- Iteration    1(   5)  ---------------------------------------


     EDDAV:  cpu time    0.60: real time    0.61
       DOS:  cpu time    0.00: real time    0.00
    CHARGE:  cpu time    0.03: real time    0.03
    MIXING:  cpu time    0.00: real time    0.00
    --------------------------------------------
      LOOP:  cpu time    0.64: real time    0.65

 eigenvalue-minimisations  :  1560
 total energy-change (2. order) :-0.8409990E-05  (-0.8410052E-05)
 number of electron       8.0000002 magnetization 
 augmentation part       -0.4860482 magnetization 

 Broyden mixing:
  rms(total) = 0.17658E+00    rms(broyden)= 0.17658E+00
  rms(prec ) = 0.44468E+00
  weight for this iteration     100.00

 Free energy of the ion-electron system (eV)
  ---------------------------------------------------
  alpha Z        PSCENC =         1.88903994
  Ewald energy   TEWEN  =      -188.56562754
  -Hartree energ DENC   =       -21.27556112
  -exchange      EXHF   =         0.00000000
  -V(xc)+E(xc)   XCENC  =       -20.45884232
  PAW double counting   =        65.95520812      -30.76852678
  entropy T*S    EENTRO =        -0.00071442
  eigenvalues    EBANDS =       -21.59287675
  atomic energy  EATOM  =       206.13311910
  ---------------------------------------------------
  free energy    TOTEN  =        -8.68478178 eV

  energy without entropy =       -8.68406736  energy(sigma->0) =       -8.68442457


--------------------------------------------------------------------------------------------------------




----------------------------------------- Iteration    1(   6)  ---------------------------------------


    POTLOK:  cpu time    0.03: real time    0.03
    SETDIJ:  cpu time    0.00: real time    0.00
     EDDAV:  cpu time    0.55: real time    0.55
       DOS:  cpu time    0.00: real time    0.00
    CHARGE:  cpu time    0.03: real time    0.03
    MIXING:  cpu time    0.00: real time    0.00
    --------------------------------------------
      LOOP:  cpu time    0.61: real time    0.61

 eigenvalue-minimisations  :  1376
 total energy-change (2. order) : 0.3391686E-02  (-0.2354080E-03)
 number of electron       8.0000002 magnetization 
 augmentation part       -0.4870405 magnetization 

 Broyden mixing:
  rms(total) = 0.11154E+00    rms(broyden)= 0.11154E+00
  rms(prec ) = 0.28437E+00
  weight for this iteration     100.00

 eigenvalues of (default mixing * dielectric matrix)
  average eigenvalue GAMMA=   2.7013
  2.7013

 Free energy of the ion-electron system (eV)
  ---------------------------------------------------
  alpha Z        PSCENC =         1.88903994
  Ewald energy   TEWEN  =      -188.56562754
  -Hartree energ DENC   =       -21.69874387
  -exchange      EXHF   =         0.00000000
  -V(xc)+E(xc)   XCENC  =       -20.39588114
  PAW double counting   =        65.49823602      -30.29058542
  entropy T*S    EENTRO =        -0.00071718
  eigenvalues    EBANDS =       -21.25023000
  atomic energy  EATOM  =       206.13311910
  ---------------------------------------------------
  free energy    TOTEN  =        -8.68139009 eV

  energy without entropy =       -8.68067292  energy(sigma->0) =       -8.68103151


--------------------------------------------------------------------------------------------------------




----------------------------------------- Iteration    1(   7)  ---------------------------------------


    POTLOK:  cpu time    0.02: real time    0.03
    SETDIJ:  cpu time    0.00: real time    0.00
     EDDAV:  cpu time    0.48: real time    0.48
       DOS:  cpu time    0.00: real time    0.00
    CHARGE:  cpu time    0.03: real time    0.03
    MIXING:  cpu time    0.00: real time    0.00
    --------------------------------------------
      LOOP:  cpu time    0.53: real time    0.54

 eigenvalue-minimisations  :  1152
 total energy-change (2. order) : 0.5654175E-02  (-0.1131057E-02)
 number of electron       8.0000002 magnetization 
 augmentation part       -0.4894046 magnetization 

 Broyden mixing:
  rms(total) = 0.74813E-02    rms(broyden)= 0.74813E-02
  rms(prec ) = 0.20748E-01
  weight for this iteration     100.00

 eigenvalues of (default mixing * dielectric matrix)
  average eigenvalue GAMMA=   2.6399
  2.6399  2.6399

 Free energy of the ion-electron system (eV)
  ---------------------------------------------------
  alpha Z        PSCENC =         1.88903994
  Ewald energy   TEWEN  =      -188.56562754
  -Hartree energ DENC   =       -22.69338997
  -exchange      EXHF   =         0.00000000
  -V(xc)+E(xc)   XCENC  =       -20.24695630
  PAW double counting   =        64.63290503      -29.38937286
  entropy T*S    EENTRO =        -0.00072077
  eigenvalues    EBANDS =       -20.43473255
  atomic energy  EATOM  =       206.13311910
  ---------------------------------------------------
  free energy    TOTEN  =        -8.67573592 eV

  energy without entropy =       -8.67501515  energy(sigma->0) =       -8.67537553


--------------------------------------------------------------------------------------------------------




----------------------------------------- Iteration    1(   8)  ---------------------------------------


    POTLOK:  cpu time    0.02: real time    0.03
    SETDIJ:  cpu time    0.00: real time    0.00
     EDDAV:  cpu time    0.54: real time    0.54
       DOS:  cpu time    0.00: real time    0.00
    CHARGE:  cpu time    0.03: real time    0.03
    MIXING:  cpu time    0.00: real time    0.00
    --------------------------------------------
      LOOP:  cpu time    0.59: real time    0.60

 eigenvalue-minimisations  :  1344
 total energy-change (2. order) :-0.1156555E-02  (-0.1719939E-03)
 number of electron       8.0000002 magnetization 
 augmentation part       -0.4886889 magnetization 

 Broyden mixing:
  rms(total) = 0.43481E-02    rms(broyden)= 0.43481E-02
  rms(prec ) = 0.11444E-01
  weight for this iteration     100.00

 eigenvalues of (default mixing * dielectric matrix)
  average eigenvalue GAMMA=   2.2632
  0.9476  3.1773  2.6646

 Free energy of the ion-electron system (eV)
  ---------------------------------------------------
  alpha Z        PSCENC =         1.88903994
  Ewald energy   TEWEN  =      -188.56562754
  -Hartree energ DENC   =       -22.79044457
  -exchange      EXHF   =         0.00000000
  -V(xc)+E(xc)   XCENC  =       -20.24425011
  PAW double counting   =        64.61058048      -29.37305255
  entropy T*S    EENTRO =        -0.00072091
  eigenvalues    EBANDS =       -20.33553632
  atomic energy  EATOM  =       206.13311910
  ---------------------------------------------------
  free energy    TOTEN  =        -8.67689248 eV

  energy without entropy =       -8.67617156  energy(sigma->0) =       -8.67653202


--------------------------------------------------------------------------------------------------------




----------------------------------------- Iteration    1(   9)  ---------------------------------------


    POTLOK:  cpu time    0.02: real time    0.03
    SETDIJ:  cpu time    0.00: real time    0.00
     EDDAV:  cpu time    0.68: real time    0.68
       DOS:  cpu time    0.00: real time    0.00
    CHARGE:  cpu time    0.03: real time    0.03
    MIXING:  cpu time    0.00: real time    0.00
    --------------------------------------------
      LOOP:  cpu time    0.73: real time    0.74

 eigenvalue-minimisations  :  1784
 total energy-change (2. order) :-0.6171270E-04  (-0.1047015E-04)
 number of electron       8.0000002 magnetization 
 augmentation part       -0.4887938 magnetization 

 Broyden mixing:
  rms(total) = 0.71869E-03    rms(broyden)= 0.71869E-03
  rms(prec ) = 0.16084E-02
  weight for this iteration     100.00

 eigenvalues of (default mixing * dielectric matrix)
  average eigenvalue GAMMA=   2.3597
  0.9957  3.4679  2.7401  2.2353

 Free energy of the ion-electron system (eV)
  ---------------------------------------------------
  alpha Z        PSCENC =         1.88903994
  Ewald energy   TEWEN  =      -188.56562754
  -Hartree energ DENC   =       -22.84631076
  -exchange      EXHF   =         0.00000000
  -V(xc)+E(xc)   XCENC  =       -20.23661928
  PAW double counting   =        64.55039792      -29.31083749
  entropy T*S    EENTRO =        -0.00072102
  eigenvalues    EBANDS =       -20.28939505
  atomic energy  EATOM  =       206.13311910
  ---------------------------------------------------
  free energy    TOTEN  =        -8.67695419 eV

  energy without entropy =       -8.67623316  energy(sigma->0) =       -8.67659368


--------------------------------------------------------------------------------------------------------




----------------------------------------- Iteration    1(  10)  ---------------------------------------


    POTLOK:  cpu time    0.02: real time    0.03
    SETDIJ:  cpu time    0.00: real time    0.00
     EDDAV:  cpu time    0.49: real time    0.49
       DOS:  cpu time    0.00: real time    0.00
    CHARGE:  cpu time    0.03: real time    0.03
    MIXING:  cpu time    0.00: real time    0.00
    --------------------------------------------
      LOOP:  cpu time    0.54: real time    0.56

 eigenvalue-minimisations  :  1208
 total energy-change (2. order) :-0.1546191E-04  (-0.3046440E-05)
 number of electron       8.0000002 magnetization 
 augmentation part       -0.4887955 magnetization 

 Broyden mixing:
  rms(total) = 0.25702E-03    rms(broyden)= 0.25702E-03
  rms(prec ) = 0.51596E-03
  weight for this iteration     100.00

 eigenvalues of (default mixing * dielectric matrix)
  average eigenvalue GAMMA=   2.1856
  3.5146  2.6035  2.6035  1.0177  1.1886

 Free energy of the ion-electron system (eV)
  ---------------------------------------------------
  alpha Z        PSCENC =         1.88903994
  Ewald energy   TEWEN  =      -188.56562754
  -Hartree energ DENC   =       -22.84926368
  -exchange      EXHF   =         0.00000000
  -V(xc)+E(xc)   XCENC  =       -20.23613896
  PAW double counting   =        64.52468535      -29.28385210
  entropy T*S    EENTRO =        -0.00072104
  eigenvalues    EBANDS =       -20.28821071
  atomic energy  EATOM  =       206.13311910
  ---------------------------------------------------
  free energy    TOTEN  =        -8.67696965 eV

  energy without entropy =       -8.67624861  energy(sigma->0) =       -8.67660913


--------------------------------------------------------------------------------------------------------




----------------------------------------- Iteration    1(  11)  ---------------------------------------


    POTLOK:  cpu time    0.02: real time    0.03
    SETDIJ:  cpu time    0.00: real time    0.00
     EDDAV:  cpu time    0.68: real time    0.68
       DOS:  cpu time    0.00: real time    0.00
    CHARGE:  cpu time    0.03: real time    0.03
    MIXING:  cpu time    0.00: real time    0.00
    --------------------------------------------
      LOOP:  cpu time    0.73: real time    0.74

 eigenvalue-minimisations  :  1768
 total energy-change (2. order) : 0.5471856E-07  (-0.7400056E-07)
 number of electron       8.0000002 magnetization 
 augmentation part       -0.4888213 magnetization 

 Broyden mixing:
  rms(total) = 0.94441E-04    rms(broyden)= 0.94441E-04
  rms(prec ) = 0.23081E-03
  weight for this iteration     100.00

 eigenvalues of (default mixing * dielectric matrix)
  average eigenvalue GAMMA=   2.2278
  3.6275  2.8900  2.5327  2.3720  0.9723  0.9723

 Free energy of the ion-electron system (eV)
  ---------------------------------------------------
  alpha Z        PSCENC =         1.88903994
  Ewald energy   TEWEN  =      -188.56562754
  -Hartree energ DENC   =       -22.84884289
  -exchange      EXHF   =         0.00000000
  -V(xc)+E(xc)   XCENC  =       -20.23589133
  PAW double counting   =        64.52350584      -29.28237208
  entropy T*S    EENTRO =        -0.00072106
  eigenvalues    EBANDS =       -20.28917957
  atomic energy  EATOM  =       206.13311910
  ---------------------------------------------------
  free energy    TOTEN  =        -8.67696960 eV

  energy without entropy =       -8.67624853  energy(sigma->0) =       -8.67660906


--------------------------------------------------------------------------------------------------------




----------------------------------------- Iteration    1(  12)  ---------------------------------------


    POTLOK:  cpu time    0.02: real time    0.03
    SETDIJ:  cpu time    0.00: real time    0.00
     EDDAV:  cpu time    0.48: real time    0.49
       DOS:  cpu time    0.00: real time    0.00
    CHARGE:  cpu time    0.03: real time    0.03
    MIXING:  cpu time    0.00: real time    0.00
    --------------------------------------------
      LOOP:  cpu time    0.54: real time    0.55

 eigenvalue-minimisations  :  1160
 total energy-change (2. order) :-0.3277916E-06  (-0.1868231E-07)
 number of electron       8.0000002 magnetization 
 augmentation part       -0.4888122 magnetization 

 Broyden mixing:
  rms(total) = 0.63060E-05    rms(broyden)= 0.63060E-05
  rms(prec ) = 0.14273E-04
  weight for this iteration     100.00

 eigenvalues of (default mixing * dielectric matrix)
  average eigenvalue GAMMA=   2.0901
  3.6749  2.8896  2.5206  2.3797  1.2276  1.0014  0.9369

 Free energy of the ion-electron system (eV)
  ---------------------------------------------------
  alpha Z        PSCENC =         1.88903994
  Ewald energy   TEWEN  =      -188.56562754
  -Hartree energ DENC   =       -22.84955983
  -exchange      EXHF   =         0.00000000
  -V(xc)+E(xc)   XCENC  =       -20.23583501
  PAW double counting   =        64.52728637      -29.28631441
  entropy T*S    EENTRO =        -0.00072106
  eigenvalues    EBANDS =       -20.28835748
  atomic energy  EATOM  =       206.13311910
  ---------------------------------------------------
  free energy    TOTEN  =        -8.67696992 eV

  energy without entropy =       -8.67624886  energy(sigma->0) =       -8.67660939


--------------------------------------------------------------------------------------------------------




----------------------------------------- Iteration    1(  13)  ---------------------------------------


    POTLOK:  cpu time    0.02: real time    0.03
    SETDIJ:  cpu time    0.00: real time    0.00
     EDDAV:  cpu time    0.68: real time    0.69
       DOS:  cpu time    0.00: real time    0.00
    CHARGE:  cpu time    0.03: real time    0.03
    MIXING:  cpu time    0.00: real time    0.00
    --------------------------------------------
      LOOP:  cpu time    0.73: real time    0.75

 eigenvalue-minimisations  :  1768
 total energy-change (2. order) : 0.2105031E-07  (-0.1290961E-09)
 number of electron       8.0000002 magnetization 
 augmentation part       -0.4888122 magnetization 

 Broyden mixing:
  rms(total) = 0.26171E-05    rms(broyden)= 0.26171E-05
  rms(prec ) = 0.51934E-05
  weight for this iteration     100.00

 eigenvalues of (default mixing * dielectric matrix)
  average eigenvalue GAMMA=   2.1486
  3.6642  3.0036  2.7389  2.3824  2.3824  0.9933  0.9561  1.0679

 Free energy of the ion-electron system (eV)
  ---------------------------------------------------
  alpha Z        PSCENC =         1.88903994
  Ewald energy   TEWEN  =      -188.56562754
  -Hartree energ DENC   =       -22.84952415
  -exchange      EXHF   =         0.00000000
  -V(xc)+E(xc)   XCENC  =       -20.23583759
  PAW double counting   =        64.52693186      -29.28594654
  entropy T*S    EENTRO =        -0.00072106
  eigenvalues    EBANDS =       -20.28840392
  atomic energy  EATOM  =       206.13311910
  ---------------------------------------------------
  free energy    TOTEN  =        -8.67696990 eV

  energy without entropy =       -8.67624884  energy(sigma->0) =       -8.67660937


--------------------------------------------------------------------------------------------------------




----------------------------------------- Iteration    1(  14)  ---------------------------------------


    POTLOK:  cpu time    0.02: real time    0.04
    SETDIJ:  cpu time    0.00: real time    0.00
     EDDAV:  cpu time    0.48: real time    0.51
       DOS:  cpu time    0.00: real time    0.00
    CHARGE:  cpu time    0.03: real time    0.03
    MIXING:  cpu time    0.00: real time    0.00
    --------------------------------------------
      LOOP:  cpu time    0.53: real time    0.59

 eigenvalue-minimisations  :  1168
 total energy-change (2. order) : 0.8541321E-08  (-0.2865895E-10)
 number of electron       8.0000002 magnetization 
 augmentation part       -0.4888124 magnetization 

 Broyden mixing:
  rms(total) = 0.40419E-06    rms(broyden)= 0.40418E-06
  rms(prec ) = 0.72186E-06
  weight for this iteration     100.00

 eigenvalues of (default mixing * dielectric matrix)
  average eigenvalue GAMMA=   1.9993
  3.6712  2.9815  2.7386  2.4994  2.3257  1.0758  0.9936  0.9538  0.7541

 Free energy of the ion-electron system (eV)
  ---------------------------------------------------
  alpha Z        PSCENC =         1.88903994
  Ewald energy   TEWEN  =      -188.56562754
  -Hartree energ DENC   =       -22.84952318
  -exchange      EXHF   =         0.00000000
  -V(xc)+E(xc)   XCENC  =       -20.23583866
  PAW double counting   =        64.52668867      -29.28569820
  entropy T*S    EENTRO =        -0.00072106
  eigenvalues    EBANDS =       -20.28840897
  atomic energy  EATOM  =       206.13311910
  ---------------------------------------------------
  free energy    TOTEN  =        -8.67696989 eV

  energy without entropy =       -8.67624883  energy(sigma->0) =       -8.67660936


--------------------------------------------------------------------------------------------------------




----------------------------------------- Iteration    1(  15)  ---------------------------------------


    POTLOK:  cpu time    0.02: real time    0.04
    SETDIJ:  cpu time    0.00: real time    0.00
     EDDAV:  cpu time    0.34: real time    0.38
       DOS:  cpu time    0.00: real time    0.00
    CHARGE:  cpu time    0.03: real time    0.03
    MIXING:  cpu time    0.00: real time    0.01
    --------------------------------------------
      LOOP:  cpu time    0.39: real time    0.46

 eigenvalue-minimisations  :   688
 total energy-change (2. order) : 0.1783462E-09  (-0.7568635E-12)
 number of electron       8.0000002 magnetization 
 augmentation part       -0.4888124 magnetization 

 Broyden mixing:
  rms(total) = 0.10568E-06    rms(broyden)= 0.10564E-06
  rms(prec ) = 0.13903E-06
  weight for this iteration     100.00

 eigenvalues of (default mixing * dielectric matrix)
  average eigenvalue GAMMA=   2.1082
  3.6825  2.9768  2.9768  2.6104  2.5589  2.3012  1.0528  0.9757  0.9757  0.9716

 Free energy of the ion-electron system (eV)
  ---------------------------------------------------
  alpha Z        PSCENC =         1.88903994
  Ewald energy   TEWEN  =      -188.56562754
  -Hartree energ DENC   =       -22.84952403
  -exchange      EXHF   =         0.00000000
  -V(xc)+E(xc)   XCENC  =       -20.23583922
  PAW double counting   =        64.52666421      -29.28567374
  entropy T*S    EENTRO =        -0.00072106
  eigenvalues    EBANDS =       -20.28840755
  atomic energy  EATOM  =       206.13311910
  ---------------------------------------------------
  free energy    TOTEN  =        -8.67696989 eV

  energy without entropy =       -8.67624883  energy(sigma->0) =       -8.67660936


--------------------------------------------------------------------------------------------------------




----------------------------------------- Iteration    1(  16)  ---------------------------------------


    POTLOK:  cpu time    0.02: real time    0.04
    SETDIJ:  cpu time    0.00: real time    0.00
     EDDAV:  cpu time    0.30: real time    0.32
       DOS:  cpu time    0.00: real time    0.00
    CHARGE:  cpu time    0.03: real time    0.03
    MIXING:  cpu time    0.00: real time    0.01
    --------------------------------------------
      LOOP:  cpu time    0.36: real time    0.40

 eigenvalue-minimisations  :   576
 total energy-change (2. order) :-0.5707932E-09  (-0.7595617E-13)
 number of electron       8.0000002 magnetization 
 augmentation part       -0.4888124 magnetization 

 Broyden mixing:
  rms(total) = 0.14214E-07    rms(broyden)= 0.13887E-07
  rms(prec ) = 0.35727E-07
  weight for this iteration     100.00

 eigenvalues of (default mixing * dielectric matrix)
  average eigenvalue GAMMA=   2.0118
  3.6772  3.0501  2.9084  2.6146  2.5081  2.2794  0.9650  0.9946  1.0234  1.0234
  1.0858

 Free energy of the ion-electron system (eV)
  ---------------------------------------------------
  alpha Z        PSCENC =         1.88903994
  Ewald energy   TEWEN  =      -188.56562754
  -Hartree energ DENC   =       -22.84952408
  -exchange      EXHF   =         0.00000000
  -V(xc)+E(xc)   XCENC  =       -20.23583920
  PAW double counting   =        64.52668078      -29.28569057
  entropy T*S    EENTRO =        -0.00072106
  eigenvalues    EBANDS =       -20.28840726
  atomic energy  EATOM  =       206.13311910
  ---------------------------------------------------
  free energy    TOTEN  =        -8.67696989 eV

  energy without entropy =       -8.67624883  energy(sigma->0) =       -8.67660936


--------------------------------------------------------------------------------------------------------




----------------------------------------- Iteration    1(  17)  ---------------------------------------


    POTLOK:  cpu time    0.04: real time    0.04
    SETDIJ:  cpu time    0.00: real time    0.00
     EDDAV:  cpu time    0.32: real time    0.32
       DOS:  cpu time    0.00: real time    0.00
    --------------------------------------------
      LOOP:  cpu time    0.36: real time    0.37

 eigenvalue-minimisations  :   576
 total energy-change (2. order) :-0.1062972E-10  ( 0.1705691E-13)
 number of electron       8.0000002 magnetization 
 augmentation part       -0.4888124 magnetization 

 Free energy of the ion-electron system (eV)
  ---------------------------------------------------
  alpha Z        PSCENC =         1.88903994
  Ewald energy   TEWEN  =      -188.56562754
  -Hartree energ DENC   =       -22.84952385
  -exchange      EXHF   =         0.00000000
  -V(xc)+E(xc)   XCENC  =       -20.23583924
  PAW double counting   =        64.52668083      -29.28569062
  entropy T*S    EENTRO =        -0.00072106
  eigenvalues    EBANDS =       -20.28840745
  atomic energy  EATOM  =       206.13311910
  ---------------------------------------------------
  free energy    TOTEN  =        -8.67696989 eV

  energy without entropy =       -8.67624883  energy(sigma->0) =       -8.67660936


--------------------------------------------------------------------------------------------------------




 average (electrostatic) potential at core
  the test charge radii are     0.9892
  (the norm of the test charge is              1.0000)
       1 -88.4559       2 -88.4559
 
 
 
 E-fermi :   1.2722     XC(G=0):  -7.3023     alpha+bet : -6.7296


 k-point     1 :       0.0000    0.0000    0.0000
  band No.  band energies     occupation 
      1      -7.5803      2.00000
      2      -0.5283      2.00000
      3       1.3305      0.17722
      4       1.3305      0.17722
      5       1.3305      0.17722
      6       3.4820      0.00000
      7       3.4820      0.00000
      8       3.4820      0.00000

 k-point     2 :       0.0833    0.0000    0.0000
  band No.  band energies     occupation 
      1      -7.5277      2.00000
      2      -0.8932      2.00000
      3       1.2557      1.31916
      4       1.2557      1.31915
      5       1.4836      0.00043
      6       3.5941      0.00000
      7       3.5941      0.00000
      8       3.6176      0.00000

 k-point     3 :       0.1667    0.0000    0.0000
  band No.  band energies     occupation 
      1      -7.3730      2.00000
      2      -1.6431      2.00000
      3       1.0824      1.99900
      4       1.0824      1.99900
      5       1.5862      0.00001
      6       3.8565      0.00000
      7       3.8565      0.00000
      8       4.1094      0.00000

 k-point     4 :       0.2500    0.0000    0.0000
  band No.  band energies     occupation 
      1      -7.1273      2.00000
      2      -2.4611      2.00000
      3       0.8923      2.00000
      4       0.8923      2.00000
      5       1.4970      0.00025
      6       4.1286      0.00000
      7       4.1286      0.00000
      8       4.9157      0.00000

 k-point     5 :       0.3333    0.0000    0.0000
  band No.  band energies     occupation 
      1      -6.8187      2.00000
      2      -3.2161      2.00000
      3       0.7355      2.00000
      4       0.7355      2.00000
      5       1.3536      0.07437
      6       4.3084      0.00000
      7       4.3084      0.00000
      8       5.8619      0.00000

 k-point     6 :       0.4167    0.0000    0.0000
  band No.  band energies     occupation 
      1      -6.5178      2.00000
      2      -3.7966      2.00000
      3       0.6352      2.00000
      4       0.6352      2.00000
      5       1.2449      1.49843
      6       4.3853      0.00000
      7       4.3853      0.00000
      8       6.7504      0.00000

 k-point     7 :       0.5000    0.0000    0.0000
  band No.  band energies     occupation 
      1      -6.3775      2.00000
      2      -4.0319      2.00000
      3       0.6009      2.00000
      4       0.6009      2.00000
      5       1.2057      1.86963
      6       4.4030      0.00000
      7       4.4030      0.00000
      8       7.1597      0.00000

 k-point     8 :       0.0833    0.0833    0.0000
  band No.  band energies     occupation 
      1      -7.5100      2.00000
      2      -0.9811      2.00000
      3       1.1254      1.99439
      4       1.1254      1.99439
      5       1.7637      0.00000
      6       3.3311      0.00000
      7       3.7736      0.00000
      8       3.7736      0.00000

 k-point     9 :       0.1667    0.0833    0.0000
  band No.  band energies     occupation 
      1      -7.3886      2.00000
      2      -1.5445      2.00000
      3       0.9267      2.00000
      4       0.9323      2.00000
      5       2.0231      0.00000
      6       3.3517      0.00000
      7       4.0814      0.00000
      8       4.1628      0.00000

 k-point    10 :       0.2500    0.0833    0.0000
  band No.  band energies     occupation 
      1      -7.1714      2.00000
      2      -2.2898      2.00000
      3       0.6870      2.00000
      4       0.7355      2.00000
      5       2.0432      0.00000
      6       3.6458      0.00000
      7       4.3819      0.00000
      8       4.7617      0.00000

 k-point    11 :       0.3333    0.0833    0.0000
  band No.  band energies     occupation 
      1      -6.8789      2.00000
      2      -3.0383      2.00000
      3       0.4422      2.00000
      4       0.5938      2.00000
      5       1.9345      0.00000
      6       3.9893      0.00000
      7       4.5683      0.00000
      8       5.4801      0.00000

 k-point    12 :       0.4167    0.0833    0.0000
  band No.  band energies     occupation 
      1      -6.5622      2.00000
      2      -3.6723      2.00000
      3       0.2493      2.00000
      4       0.5198      2.00000
      5       1.8193      0.00000
      6       4.2156      0.00000
      7       4.6184      0.00000
      8       6.2604      0.00000

 k-point    13 :       0.5000    0.0833    0.0000
  band No.  band energies     occupation 
      1      -6.3457      2.00000
      2      -4.0376      2.00000
      3       0.1329      2.00000
      4       0.5193      2.00000
      5       1.7494      0.00000
      6       4.3390      0.00000
      7       4.5804      0.00000
      8       6.8939      0.00000

 k-point    14 :      -0.4167    0.0833    0.0000
  band No.  band energies     occupation 
      1      -6.3958      2.00000
      2      -3.9570      2.00000
      3       0.1040      2.00000
      4       0.5904      2.00000
      5       1.7425      0.00000
      6       4.4114      0.00000
      7       4.4957      0.00000
      8       6.7878      0.00000

 k-point    15 :      -0.3333    0.0833    0.0000
  band No.  band energies     occupation 
      1      -6.6662      2.00000
      2      -3.4792      2.00000
      3       0.1677      2.00000
      4       0.7249      2.00000
      5       1.7955      0.00000
      6       4.3597      0.00000
      7       4.4216      0.00000
      8       6.0376      0.00000

 k-point    16 :      -0.2500    0.0833    0.0000
  band No.  band energies     occupation 
      1      -6.9838      2.00000
      2      -2.7948      2.00000
      3       0.3262      2.00000
      4       0.9058      2.00000
      5       1.8799      0.00000
      6       4.1435      0.00000
      7       4.2798      0.00000
      8       5.2335      0.00000

 k-point    17 :      -0.1667    0.0833    0.0000
  band No.  band energies     occupation 
      1      -7.2545      2.00000
      2      -2.0387      2.00000
      3       0.5781      2.00000
      4       1.0992      1.99803
      5       1.9145      0.00000
      6       3.8662      0.00000
      7       3.9332      0.00000
      8       4.5938      0.00000

 k-point    18 :      -0.0833    0.0833    0.0000
  band No.  band energies     occupation 
      1      -7.4408      2.00000
      2      -1.3362      2.00000
      3       0.9139      2.00000
      4       1.2423      1.53555
      5       1.7574      0.00000
      6       3.6375      0.00000
      7       3.6416      0.00000
      8       4.0607      0.00000

 k-point    19 :       0.1667    0.1667    0.0000
  band No.  band energies     occupation 
      1      -7.3005      2.00000
      2      -1.8259      2.00000
      3       0.7134      2.00000
      4       0.7134      2.00000
      5       2.4904      0.00000
      6       3.0042      0.00000
      7       4.4409      0.00000
      8       4.4409      0.00000

 k-point    20 :       0.2500    0.1667    0.0000
  band No.  band energies     occupation 
      1      -7.1137      2.00000
      2      -2.3760      2.00000
      3       0.4554      2.00000
      4       0.5158      2.00000
      5       2.6740      0.00000
      6       3.0457      0.00000
      7       4.8024      0.00000
      8       4.8788      0.00000

 k-point    21 :       0.3333    0.1667    0.0000
  band No.  band energies     occupation 
      1      -6.8424      2.00000
      2      -3.0234      2.00000
      3       0.1351      2.00000
      4       0.3745      2.00000
      5       2.6042      0.00000
      6       3.4663      0.00000
      7       5.0452      0.00000
      8       5.2557      0.00000

 k-point    22 :       0.4167    0.1667    0.0000
  band No.  band energies     occupation 
      1      -6.5229      2.00000
      2      -3.6390      2.00000
      3      -0.1576      2.00000
      4       0.3078      2.00000
      5       2.4868      0.00000
      6       3.9481      0.00000
      7       5.1173      0.00000
      8       5.6087      0.00000

 k-point    23 :       0.5000    0.1667    0.0000
  band No.  band energies     occupation 
      1      -6.2492      2.00000
      2      -4.0816      2.00000
      3      -0.3659      2.00000
      4       0.3214      2.00000
      5       2.3983      0.00000
      6       4.2724      0.00000
      7       5.0565      0.00000
      8       6.1485      0.00000

 k-point    24 :      -0.4167    0.1667    0.0000
  band No.  band energies     occupation 
      1      -6.2039      2.00000
      2      -4.1486      2.00000
      3      -0.4640      2.00000
      4       0.4125      2.00000
      5       2.3603      0.00000
      6       4.4511      0.00000
      7       4.9161      0.00000
      8       6.5016      0.00000

 k-point    25 :      -0.3333    0.1667    0.0000
  band No.  band energies     occupation 
      1      -6.4306      2.00000
      2      -3.7967      2.00000
      3      -0.4349      2.00000
      4       0.5698      2.00000
      5       2.3652      0.00000
      6       4.5457      0.00000
      7       4.7071      0.00000
      8       5.9664      0.00000

 k-point    26 :      -0.2500    0.1667    0.0000
  band No.  band energies     occupation 
      1      -6.7500      2.00000
      2      -3.2256      2.00000
      3      -0.2612      2.00000
      4       0.7704      2.00000
      5       2.3673      0.00000
      6       4.4193      0.00000
      7       4.4548      0.00000
      8       5.3434      0.00000

 k-point    27 :      -0.1667    0.1667    0.0000
  band No.  band energies     occupation 
      1      -7.0406      2.00000
      2      -2.6014      2.00000
      3       0.0764      2.00000
      4       0.9709      1.99999
      5       2.2532      0.00000
      6       4.0965      0.00000
      7       4.1216      0.00000
      8       5.0024      0.00000

 k-point    28 :       0.2500    0.2500    0.0000
  band No.  band energies     occupation 
      1      -6.9565      2.00000
      2      -2.7266      2.00000
      3       0.3085      2.00000
      4       0.3085      2.00000
      5       2.6861      0.00000
      6       2.9808      0.00000
      7       5.2564      0.00000
      8       5.2564      0.00000

 k-point    29 :       0.3333    0.2500    0.0000
  band No.  band energies     occupation 
      1      -6.7096      2.00000
      2      -3.2297      2.00000
      3       0.0457      2.00000
      4       0.1574      2.00000
      5       2.7093      0.00000
      6       3.0986      0.00000
      7       5.5447      0.00000
      8       5.6067      0.00000

 k-point    30 :       0.4167    0.2500    0.0000
  band No.  band energies     occupation 
      1      -6.3972      2.00000
      2      -3.7674      2.00000
      3      -0.3055      2.00000
      4       0.0832      2.00000
      5       2.7212      0.00000
      6       3.5320      0.00000
      7       5.5740      0.00000
      8       5.7572      0.00000

 k-point    31 :       0.5000    0.2500    0.0000
  band No.  band energies     occupation 
      1      -6.0861      2.00000
      2      -4.2229      2.00000
      3      -0.6128      2.00000
      4       0.0934      2.00000
      5       2.6756      0.00000
[...]
      8       6.3960      0.00000

 k-point    37 :       0.5000    0.3333    0.0000
  band No.  band energies     occupation 
      1      -5.8554      2.00000
      2      -4.4897      2.00000
      3      -0.5836      2.00000
      4      -0.1018      2.00000
      5       2.6363      0.00000
      6       3.5331      0.00000
      7       6.1477      0.00000
      8       6.4135      0.00000

 k-point    38 :      -0.4167    0.3333    0.0000
  band No.  band energies     occupation 
      1      -5.6501      2.00000
      2      -4.7253      2.00000
      3      -0.8562      2.00000
      4      -0.0200      2.00000
      5       2.6636      0.00000
      6       4.3451      0.00000
      7       6.0224      0.00000
      8       6.1915      0.00000

 k-point    39 :      -0.3333    0.3333    0.0000
  band No.  band energies     occupation 
      1      -5.8125      2.00000
      2      -4.5370      2.00000
      3      -0.9561      2.00000
      4       0.1380      2.00000
      5       2.7056      0.00000
      6       5.0879      0.00000
      7       5.7655      0.00000
      8       5.7728      0.00000

 k-point    40 :       0.4167    0.4167    0.0000
  band No.  band energies     occupation 
      1      -5.9005      2.00000
      2      -4.4442      2.00000
      3      -0.2064      2.00000
      4      -0.2064      2.00000
      5       2.4235      0.00000
      6       2.7655      0.00000
      7       6.8569      0.00000
      8       6.8569      0.00000

 k-point    41 :       0.5000    0.4167    0.0000
  band No.  band energies     occupation 
      1      -5.5608      2.00000
      2      -4.8415      2.00000
      3      -0.3921      2.00000
      4      -0.2295      2.00000
      5       2.5427      0.00000
      6       2.8461      0.00000
      7       6.8925      0.00000
      8       6.9796      0.00000

 k-point    42 :      -0.4167    0.4167    0.0000
  band No.  band energies     occupation 
      1      -5.3615      2.00000
      2      -5.0438      2.00000
      3      -0.6783      2.00000
      4      -0.1650      2.00000
      5       2.5957      0.00000
      6       3.4989      0.00000
      7       6.5948      0.00000
      8       6.7291      0.00000

 k-point    43 :       0.5000    0.5000    0.0000
  band No.  band energies     occupation 
      1      -5.2142      2.00000
      2      -5.2142      2.00000
      3      -0.2737      2.00000
      4      -0.2737      2.00000
      5       2.5303      0.00000
      6       2.5303      0.00000
      7       7.2027      0.00000
      8       7.2027      0.00000

 k-point    44 :       0.2500    0.1667    0.0833
  band No.  band energies     occupation 
      1      -7.2349      2.00000
      2      -2.0626      2.00000
      3       0.4958      2.00000
      4       0.8796      2.00000
      5       2.3211      0.00000
      6       3.3409      0.00000
      7       4.3426      0.00000
      8       4.6405      0.00000

 k-point    45 :       0.3333    0.1667    0.0833
  band No.  band energies     occupation 
      1      -6.9904      2.00000
      2      -2.7182      2.00000
      3       0.1410      2.00000
      4       0.7292      2.00000
      5       2.4103      0.00000
      6       3.6294      0.00000
      7       4.6604      0.00000
      8       5.0686      0.00000

 k-point    46 :       0.4167    0.1667    0.0833
  band No.  band energies     occupation 
      1      -6.6815      2.00000
      2      -3.3779      2.00000
      3      -0.1084      2.00000
      4       0.5614      2.00000
      5       2.3539      0.00000
      6       4.0151      0.00000
      7       4.8351      0.00000
      8       5.5582      0.00000

 k-point    47 :       0.5000    0.1667    0.0833
  band No.  band energies     occupation 
      1      -6.3764      2.00000
      2      -3.9134      2.00000
      3      -0.2540      2.00000
      4       0.4410      2.00000
      5       2.2844      0.00000
      6       4.2501      0.00000
      7       4.8711      0.00000
      8       6.2024      0.00000

 k-point    48 :      -0.4167    0.1667    0.0833
  band No.  band energies     occupation 
      1      -6.2316      2.00000
      2      -4.1381      2.00000
      3      -0.3017      2.00000
      4       0.3980      2.00000
      5       2.2568      0.00000
      6       4.3151      0.00000
      7       4.8732      0.00000
      8       6.6348      0.00000

 k-point    49 :       0.3333    0.2500    0.0833
  band No.  band energies     occupation 
      1      -6.8977      2.00000
      2      -2.8742      2.00000
      3       0.0962      2.00000
      4       0.4097      2.00000
      5       2.9068      0.00000
      6       3.0388      0.00000
      7       5.1554      0.00000
      8       5.1954      0.00000

 k-point    50 :       0.4167    0.2500    0.0833
  band No.  band energies     occupation 
      1      -6.6051      2.00000
      2      -3.4404      2.00000
      3      -0.2364      2.00000
      4       0.2678      2.00000
      5       2.8818      0.00000
      6       3.4831      0.00000
      7       5.2290      0.00000
      8       5.5265      0.00000

 k-point    51 :       0.5000    0.2500    0.0833
  band No.  band energies     occupation 
      1      -6.2829      2.00000
      2      -3.9654      2.00000
      3      -0.4942      2.00000
      4       0.1694      2.00000
      5       2.8068      0.00000
      6       4.0255      0.00000
      7       5.2998      0.00000
      8       5.7313      0.00000

 k-point    52 :      -0.4167    0.2500    0.0833
  band No.  band energies     occupation 
      1      -6.0577      2.00000
      2      -4.2868      2.00000
      3      -0.6524      2.00000
      4       0.1606      2.00000
      5       2.7644      0.00000
      6       4.3407      0.00000
      7       5.3930      0.00000
      8       6.0187      0.00000

 k-point    53 :      -0.3333    0.2500    0.0833
  band No.  band energies     occupation 
      1      -6.1202      2.00000
      2      -4.2006      2.00000
      3      -0.6884      2.00000
      4       0.2445      2.00000
      5       2.7623      0.00000
      6       4.4073      0.00000
      7       5.3151      0.00000
      8       6.0254      0.00000

 k-point    54 :      -0.2500    0.2500    0.0833
  band No.  band energies     occupation 
      1      -6.4055      2.00000
      2      -3.7797      2.00000
      3      -0.5799      2.00000
      4       0.4020      2.00000
      5       2.7707      0.00000
      6       4.2311      0.00000
      7       5.1800      0.00000
      8       5.5385      0.00000

 k-point    55 :      -0.1667    0.2500    0.0833
  band No.  band energies     occupation 
      1      -6.7244      2.00000
      2      -3.2421      2.00000
      3      -0.3054      2.00000
      4       0.5906      2.00000
      5       2.6945      0.00000
      6       3.8526      0.00000
      7       5.0389      0.00000
      8       5.1741      0.00000

 k-point    56 :       0.4167    0.3333    0.0833
  band No.  band energies     occupation 
      1      -6.4381      2.00000
      2      -3.6885      2.00000
      3      -0.2012      2.00000
      4       0.0167      2.00000
      5       2.8296      0.00000
      6       3.1232      0.00000
      7       5.6258      0.00000
      8       6.0674      0.00000

 k-point    57 :       0.5000    0.3333    0.0833
  band No.  band energies     occupation 
      1      -6.1130      2.00000
      2      -4.1600      2.00000
      3      -0.5007      2.00000
      4      -0.0874      2.00000
      5       2.9325      0.00000
      6       3.5381      0.00000
      7       5.5371      0.00000
      8       6.2827      0.00000

 k-point    58 :      -0.4167    0.3333    0.0833
  band No.  band energies     occupation 
      1      -5.8267      2.00000
      2      -4.5230      2.00000
      3      -0.7630      2.00000
      4      -0.0868      2.00000
      5       2.9295      0.00000
      6       4.2610      0.00000
      7       5.4952      0.00000
      8       6.1674      0.00000

 k-point    59 :      -0.3333    0.3333    0.0833
  band No.  band energies     occupation 
      1      -5.8121      2.00000
      2      -4.5388      2.00000
      3      -0.8961      2.00000
      4       0.0139      2.00000
      5       2.9506      0.00000
      6       4.7716      0.00000
      7       5.6662      0.00000
      8       5.7453      0.00000

 k-point    60 :      -0.2500    0.3333    0.0833
  band No.  band energies     occupation 
      1      -6.0831      2.00000
      2      -4.2053      2.00000
      3      -0.8451      2.00000
      4       0.1914      2.00000
      5       2.9463      0.00000
      6       4.6607      0.00000
      7       5.3442      0.00000
      8       5.7417      0.00000

 k-point    61 :       0.5000    0.4167    0.0833
  band No.  band energies     occupation 
      1      -5.8692      2.00000
      2      -4.4739      2.00000
      3      -0.3652      2.00000
      4      -0.2539      2.00000
      5       2.7566      0.00000
      6       3.0006      0.00000
      7       6.2779      0.00000
      8       6.7728      0.00000

 k-point    62 :      -0.4167    0.4167    0.0833
  band No.  band energies     occupation 
      1      -5.5413      2.00000
      2      -4.8451      2.00000
      3      -0.6343      2.00000
      4      -0.2782      2.00000
      5       2.8806      0.00000
      6       3.5201      0.00000
      7       6.1429      0.00000
      8       6.6125      0.00000

 k-point    63 :      -0.3333    0.4167    0.0833
  band No.  band energies     occupation 
      1      -5.5108      2.00000
      2      -4.8702      2.00000
      3      -0.8599      2.00000
      4      -0.1737      2.00000
      5       2.9294      0.00000
      6       4.3527      0.00000
      7       5.9624      0.00000
      8       6.0040      0.00000

 k-point    64 :      -0.4167    0.5000    0.0833
  band No.  band energies     occupation 
      1      -5.2078      2.00000
      2      -5.2078      2.00000
      3      -0.3834      2.00000
      4      -0.3834      2.00000
      5       2.8273      0.00000
      6       2.8273      0.00000
      7       6.8572      0.00000
      8       6.8572      0.00000

 k-point    65 :       0.5000    0.3333    0.1667
  band No.  band energies     occupation 
      1      -6.2989      2.00000
      2      -3.9053      2.00000
      3      -0.5606      2.00000
      4       0.0971      2.00000
      5       3.2309      0.00000
      6       3.6553      0.00000
      7       5.1500      0.00000
      8       5.9509      0.00000

 k-point    66 :      -0.4167    0.3333    0.1667
  band No.  band energies     occupation 
      1      -5.9789      2.00000
      2      -4.3344      2.00000
      3      -0.7562      2.00000
      4      -0.0592      2.00000
      5       3.2878      0.00000
      6       4.1470      0.00000
      7       5.2169      0.00000
      8       6.0695      0.00000

 k-point    67 :      -0.3333    0.3333    0.1667
  band No.  band energies     occupation 
      1      -5.8117      2.00000
      2      -4.5407      2.00000
      3      -0.8202      2.00000
      4      -0.1197      2.00000
      5       3.2848      0.00000
      6       4.3545      0.00000
      7       5.6462      0.00000
      8       5.7140      0.00000

 k-point    68 :      -0.4167    0.4167    0.1667
  band No.  band energies     occupation 
      1      -5.7817      2.00000
      2      -4.5624      2.00000
      3      -0.6539      2.00000
      4      -0.3122      2.00000
      5       3.5148      0.00000
      6       3.5552      0.00000
      7       5.3943      0.00000
      8       6.4290      0.00000

 k-point    69 :      -0.3333    0.4167    0.1667
  band No.  band energies     occupation 
      1      -5.5209      2.00000
      2      -4.8497      2.00000
      3      -0.7864      2.00000
      4      -0.3894      2.00000
      5       3.5448      0.00000
      6       4.2695      0.00000
      7       5.3432      0.00000
      8       5.8589      0.00000

 k-point    70 :      -0.2500    0.4167    0.1667
  band No.  band energies     occupation 
      1      -5.6553      2.00000
      2      -4.7015      2.00000
      3      -0.8494      2.00000
      4      -0.2782      2.00000
      5       3.5329      0.00000
      6       4.4775      0.00000
      7       5.2507      0.00000
      8       5.7679      0.00000

 k-point    71 :      -0.3333    0.5000    0.1667
  band No.  band energies     occupation 
      1      -5.1949      2.00000
      2      -5.1949      2.00000
      3      -0.5706      2.00000
      4      -0.5706      2.00000
      5       3.5434      0.00000
      6       3.5434      0.00000
      7       5.9982      0.00000
      8       5.9982      0.00000

 k-point    72 :      -0.2500    0.5000    0.2500
  band No.  band energies     occupation 
      1      -5.1884      2.00000
      2      -5.1884      2.00000
      3      -0.6528      2.00000
      4      -0.6528      2.00000
      5       4.1334      0.00000
      6       4.1334      0.00000
      7       5.3329      0.00000
      8       5.3329      0.00000


--------------------------------------------------------------------------------------------------------


 soft charge-density along one line, spin component           1
         0         1         2         3         4         5         6         7         8         9
 total charge-density along one line
 
 pseudopotential strength for first ion, spin component:           1
 18.963   0.004   0.000   0.000   0.000  -0.000  -0.000  -0.000
  0.004   0.006  -0.000  -0.000  -0.000   0.000   0.000   0.000
  0.000  -0.000   4.241  -0.000  -0.000  -0.001   0.000   0.000
  0.000  -0.000  -0.000   4.241  -0.000   0.000  -0.001   0.000
  0.000  -0.000  -0.000  -0.000   4.241   0.000   0.000  -0.001
 -0.000   0.000  -0.001   0.000   0.000   0.005  -0.000  -0.000
 -0.000   0.000   0.000  -0.001   0.000  -0.000   0.005  -0.000
 -0.000   0.000   0.000   0.000  -0.001  -0.000  -0.000   0.005
 total augmentation occupancy for first ion, spin component:           1
  1.738  -0.111   0.000   0.000   0.000   0.000   0.000   0.000
 -0.111   0.204   0.000   0.000   0.000  -0.000   0.000  -0.000
  0.000   0.000   0.727   0.000   0.000  -0.226   0.000   0.000
  0.000   0.000  -0.000   0.727  -0.000   0.000  -0.226   0.000
  0.000   0.000   0.000  -0.000   0.727   0.000   0.000  -0.226
  0.000   0.000  -0.226   0.000   0.000   0.090   0.000   0.000
  0.000   0.000   0.000  -0.226   0.000   0.000   0.090   0.000
  0.000   0.000   0.000   0.000  -0.226   0.000   0.000   0.090


------------------------ aborting loop because EDIFF is reached ----------------------------------------


    CHARGE:  cpu time    0.04: real time    0.04
    FORLOC:  cpu time    0.01: real time    0.01
    FORNL :  cpu time    0.05: real time    0.05
    STRESS:  cpu time    0.48: real time    0.48
    FORCOR:  cpu time    0.02: real time    0.02
    FORHAR:  cpu time    0.01: real time    0.01
    MIXING:  cpu time    0.00: real time    0.00
    OFIELD:  cpu time    0.00: real time    0.00

  FORCE on cell =-STRESS in cart. coord.  units (eV):
  Direction    XX          YY          ZZ          XY          YZ          ZX
  --------------------------------------------------------------------------------------
  Alpha Z     1.88904     1.88904     1.88904
  Ewald     -62.85524   -62.85524   -62.85524     0.00000    -0.00000     0.00000
  Hartree     7.61651     7.61651     7.61651    -0.00000    -0.00000    -0.00000
  E(xc)     -22.89730   -22.89730   -22.89730    -0.00000    -0.00000    -0.00000
  Local     -39.40230   -39.40230   -39.40230     0.00001     0.00001     0.00001
  n-local    75.88710    77.32535    71.57365     1.51363    -0.68744     0.12940
  augment   -12.51921   -12.51921   -12.51921    -0.00001    -0.00001    -0.00001
  Kinetic    49.58230    50.43026    42.16967     3.51631    -1.36186     0.96929
  Fock        0.00000     0.00000     0.00000     0.00000     0.00000     0.00000
  -------------------------------------------------------------------------------------
  Total      -5.84573    -5.84573    -5.84573    -0.00000    -0.00000     0.00000
  in kB    -131.39429  -131.39429  -131.39429    -0.00000    -0.00000     0.00000
  external pressure =     -131.39 kB  Pullay stress =        0.00 kB


 VOLUME and BASIS-vectors are now :
 -----------------------------------------------------------------------------
  energy-cutoff  :      600.00
  volume of cell :       71.28
      direct lattice vectors                 reciprocal lattice vectors
     0.000000000  3.290896534  3.290896534    -0.151934281  0.151934281  0.151934281
     3.290896534  0.000000000  3.290896534     0.151934281 -0.151934281  0.151934281
     3.290896534  3.290896534  0.000000000     0.151934281  0.151934281 -0.151934281

  length of vectors
     4.654030511  4.654030511  4.654030511     0.263157895  0.263157895  0.263157895


 FORCES acting on ions
    electron-ion (+dipol)            ewald-force                    non-local-force                 convergence-correction
 -----------------------------------------------------------------------------------------------
   0.884E-07 0.884E-07 0.104E-06   -.122E-14 0.421E-15 0.108E-14   -.572E-16 -.399E-16 -.416E-16   0.539E-13 0.514E-13 0.538E-13
   -.884E-07 -.884E-07 -.104E-06   0.122E-14 -.209E-15 -.957E-15   0.486E-16 0.416E-16 0.416E-16   -.464E-13 -.477E-13 -.502E-13
 -----------------------------------------------------------------------------------------------
   0.944E-13 0.103E-13 0.218E-14   0.176E-18 0.212E-15 0.121E-15   -.867E-17 0.173E-17 0.000E+00   0.750E-14 0.366E-14 0.365E-14
 
 
 POSITION                                       TOTAL-FORCE (eV/Angst)
 -----------------------------------------------------------------------------------
      0.00000      0.00000      0.00000        -0.000000      0.000000      0.000000
      1.64545      1.64545      1.64545         0.000000     -0.000000     -0.000000
 -----------------------------------------------------------------------------------
    total drift:                                0.000000      0.000000      0.000000


--------------------------------------------------------------------------------------------------------



  FREE ENERGIE OF THE ION-ELECTRON SYSTEM (eV)
  ---------------------------------------------------
  free  energy   TOTEN  =        -8.67696989 eV

  energy  without entropy=       -8.67624883  energy(sigma->0) =       -8.67660936
 


--------------------------------------------------------------------------------------------------------


    POTLOK:  cpu time    0.03: real time    0.03


--------------------------------------------------------------------------------------------------------


 writing wavefunctions
     LOOP+:  cpu time   10.63: real time   11.13
    4ORBIT:  cpu time    0.00: real time    0.00

 total amount of memory used by VASP on root node    51541. kBytes
========================================================================

   base      :      30000. kBytes
   nonl-proj :      11247. kBytes
   fftplans  :       1619. kBytes
   grid      :       3048. kBytes
   one-center:          6. kBytes
   wavefun   :       5621. kBytes
 
  
  
 General timing and accounting informations for this job:
 ========================================================
  
                  Total CPU time used (sec):       11.096
                            User time (sec):       10.764
                          System time (sec):        0.332
                         Elapsed time (sec):       11.746
  
                   Maximum memory used (kb):       61496.
                   Average memory used (kb):           0.
  
                          Minor page faults:        10311
                          Major page faults:            5
                 Voluntary context switches:          640
