 vasp.5.3.5 31Mar14 (build Jun 01 2017 17:55:53) complex                        
  
 executed on             LinuxIFC date 2020.11.10  15:22:36
 running on    4 total cores
 distrk:  each k-point on    4 cores,    1 groups
 distr:  one band on NCORES_PER_BAND=   1 cores,    4 groups


--------------------------------------------------------------------------------------------------------


 INCAR:
 POTCAR:   PAW_PBE Si 05Jan2001                   
 POTCAR:   PAW_PBE Si 05Jan2001                   
   VRHFIN =Si: s2p2                                                             
   LEXCH  = PE                                                                  
   EATOM  =   103.0669 eV,    7.5752 Ry                                         
                                                                                
   TITEL  = PAW_PBE Si 05Jan2001                                                
   LULTRA =        F    use ultrasoft PP ?                                      
   IUNSCR =        1    unscreen: 0-lin 1-nonlin 2-no                           
   RPACOR =    1.500    partial core radius                                     
   POMASS =   28.085; ZVAL   =    4.000    mass and valenz                      
   RCORE  =    1.900    outmost cutoff radius                                   
   RWIGS  =    2.480; RWIGS  =    1.312    wigner-seitz radius (au A)           
   ENMAX  =  245.345; ENMIN  =  184.009 eV                                      
   ICORE  =        2    local potential                                         
   LCOR   =        T    correct aug charges                                     
   LPAW   =        T    paw PP                                                  
   EAUG   =  322.069                                                            
   DEXC   =    -.007                                                            
   RMAX   =    2.944    core radius for proj-oper                               
   RAUG   =    1.300    factor for augmentation sphere                          
   RDEP   =    1.993    radius for radial grids                                 
   QCUT   =   -4.246; QGAM   =    8.493    optimization parameters              
                                                                                
   Description                                                                  
     l     E      TYP  RCUT    TYP  RCUT                                        
     0   .000     23  1.900                                                     
     0   .000     23  1.900                                                     
     1   .000     23  1.900                                                     
     1   .000     23  1.900                                                     
     2   .000      7  1.900                                                     
  local pseudopotential read in
  partial core-charges read in
  atomic valenz-charges read in
  non local Contribution for L=           0  read in
    real space projection operators read in
  non local Contribution for L=           0  read in
    real space projection operators read in
  non local Contribution for L=           1  read in
    real space projection operators read in
  non local Contribution for L=           1  read in
    real space projection operators read in
    PAW grid and wavefunctions read in
 
   number of l-projection  operators is LMAX  =           4
   number of lm-projection operators is LMMAX =           8
 
 PAW_PBE Si 05Jan2001                   :
 energy of atom  1       EATOM= -103.0669
 kinetic energy error for atom=    0.0003 (will be added to EATOM!!)
 
 
 POSCAR: Si
  positions in direct lattice
  velocities in cartesian coordinates
  No initial velocities read in
 exchange correlation table for  LEXCH =        8
   RHO(1)=    0.500       N(1)  =     2000
   RHO(2)=  100.500       N(2)  =     4000
 


--------------------------------------------------------------------------------------------------------


 ion  position               nearest neighbor table
   1  0.000  0.000  0.000-
   2  0.250  0.250  0.250-
 
  LATTYP: Found a face centered cubic cell.
 ALAT       =     7.9674337148
  
  Lattice vectors:
  
 A1 = (   0.0000000000,   3.9837168574,   3.9837168574)
 A2 = (   3.9837168574,   0.0000000000,   3.9837168574)
 A3 = (   3.9837168574,   3.9837168574,   0.0000000000)


Analysis of symmetry for initial positions (statically):
=====================================================================
 Subroutine PRICEL returns:
 Original cell was already a primitive cell.
 

 Routine SETGRP: Setting up the symmetry group for a 
 face centered cubic supercell.


 Subroutine GETGRP returns: Found 48 space group operations
 (whereof 24 operations were pure point group operations)
 out of a pool of 48 trial point group operations.


The static configuration has the point symmetry T_d .
 The point group associated with its full space group is O_h .


Analysis of symmetry for dynamics (positions and initial velocities):
=====================================================================
 Subroutine PRICEL returns:
 Original cell was already a primitive cell.
 

 Routine SETGRP: Setting up the symmetry group for a 
 face centered cubic supercell.


 Subroutine GETGRP returns: Found 48 space group operations
 (whereof 24 operations were pure point group operations)
 out of a pool of 48 trial point group operations.


The dynamic configuration has the point symmetry T_d .
 The point group associated with its full space group is O_h .


Analysis of constrained symmetry for selective dynamics:
=====================================================================
 Subroutine PRICEL returns:
 Original cell was already a primitive cell.
 

 Routine SETGRP: Setting up the symmetry group for a 
 face centered cubic supercell.


 Subroutine GETGRP returns: Found 48 space group operations
 (whereof 24 operations were pure point group operations)
 out of a pool of 48 trial point group operations.


The constrained configuration has the point symmetry T_d .
 The point group associated with its full space group is O_h .
 
 
 KPOINTS: Gamma centered Monkhorst-Pack           

Automatic generation of k-mesh.
Space group operators:
 irot       det(A)        alpha          n_x          n_y          n_z        tau_x        tau_y        tau_z
    1     1.000000     0.000000     1.000000     0.000000     0.000000     0.000000     0.000000     0.000000
    2     1.000000   120.000000    -0.577350    -0.577350    -0.577350     0.000000     0.000000     0.000000
    3     1.000000   120.000000     0.577350     0.577350     0.577350     0.000000     0.000000     0.000000
    4    -1.000000    90.000000     0.000000     0.000000    -1.000000     0.000000     0.000000     0.000000
    5    -1.000000   180.000000     0.000000     0.707107     0.707107     0.000000     0.000000     0.000000
    6    -1.000000    90.000000     0.000000     1.000000     0.000000     0.000000     0.000000     0.000000
    7     1.000000   180.000000     0.000000     0.000000     1.000000     0.000000     0.000000     0.000000
    8     1.000000   120.000000    -0.577350     0.577350     0.577350     0.000000     0.000000     0.000000
    9     1.000000   120.000000    -0.577350     0.577350    -0.577350     0.000000     0.000000     0.000000
   10    -1.000000    90.000000     0.000000     0.000000     1.000000     0.000000     0.000000     0.000000
   11    -1.000000    90.000000    -1.000000     0.000000     0.000000     0.000000     0.000000     0.000000
   12    -1.000000   180.000000     0.707107     0.000000     0.707107     0.000000     0.000000     0.000000
   13     1.000000   120.000000     0.577350    -0.577350     0.577350     0.000000     0.000000     0.000000
   14     1.000000   120.000000    -0.577350    -0.577350     0.577350     0.000000     0.000000     0.000000
   15     1.000000   180.000000     1.000000     0.000000     0.000000     0.000000     0.000000     0.000000
   16    -1.000000    90.000000     0.000000    -1.000000     0.000000     0.000000     0.000000     0.000000
   17    -1.000000   180.000000     0.707107     0.707107     0.000000     0.000000     0.000000     0.000000
   18    -1.000000    90.000000     1.000000     0.000000     0.000000     0.000000     0.000000     0.000000
   19     1.000000   120.000000     0.577350    -0.577350    -0.577350     0.000000     0.000000     0.000000
   20     1.000000   180.000000     0.000000     1.000000     0.000000     0.000000     0.000000     0.000000
   21     1.000000   120.000000     0.577350     0.577350    -0.577350     0.000000     0.000000     0.000000
   22    -1.000000   180.000000     0.000000    -0.707107     0.707107     0.000000     0.000000     0.000000
   23    -1.000000   180.000000     0.707107    -0.707107     0.000000     0.000000     0.000000     0.000000
   24    -1.000000   180.000000     0.707107     0.000000    -0.707107     0.000000     0.000000     0.000000
   25    -1.000000     0.000000     1.000000     0.000000     0.000000     0.250000     0.250000     0.250000
   26    -1.000000   120.000000    -0.577350    -0.577350    -0.577350     0.250000     0.250000     0.250000
   27    -1.000000   120.000000     0.577350     0.577350     0.577350     0.250000     0.250000     0.250000
   28     1.000000    90.000000     0.000000     0.000000    -1.000000     0.250000     0.250000     0.250000
   29     1.000000   180.000000     0.000000     0.707107     0.707107     0.250000     0.250000     0.250000
   30     1.000000    90.000000     0.000000     1.000000     0.000000     0.250000     0.250000     0.250000
   31    -1.000000   180.000000     0.000000     0.000000     1.000000     0.250000     0.250000     0.250000
   32    -1.000000   120.000000    -0.577350     0.577350     0.577350     0.250000     0.250000     0.250000
   33    -1.000000   120.000000    -0.577350     0.577350    -0.577350     0.250000     0.250000     0.250000
   34     1.000000    90.000000     0.000000     0.000000     1.000000     0.250000     0.250000     0.250000
   35     1.000000    90.000000    -1.000000     0.000000     0.000000     0.250000     0.250000     0.250000
   36     1.000000   180.000000     0.707107     0.000000     0.707107     0.250000     0.250000     0.250000
   37    -1.000000   120.000000     0.577350    -0.577350     0.577350     0.250000     0.250000     0.250000
   38    -1.000000   120.000000    -0.577350    -0.577350     0.577350     0.250000     0.250000     0.250000
   39    -1.000000   180.000000     1.000000     0.000000     0.000000     0.250000     0.250000     0.250000
   40     1.000000    90.000000     0.000000    -1.000000     0.000000     0.250000     0.250000     0.250000
   41     1.000000   180.000000     0.707107     0.707107     0.000000     0.250000     0.250000     0.250000
   42     1.000000    90.000000     1.000000     0.000000     0.000000     0.250000     0.250000     0.250000
   43    -1.000000   120.000000     0.577350    -0.577350    -0.577350     0.250000     0.250000     0.250000
   44    -1.000000   180.000000     0.000000     1.000000     0.000000     0.250000     0.250000     0.250000
   45    -1.000000   120.000000     0.577350     0.577350    -0.577350     0.250000     0.250000     0.250000
   46     1.000000   180.000000     0.000000    -0.707107     0.707107     0.250000     0.250000     0.250000
   47     1.000000   180.000000     0.707107    -0.707107     0.000000     0.250000     0.250000     0.250000
   48     1.000000   180.000000     0.707107     0.000000    -0.707107     0.250000     0.250000     0.250000
 
 Subroutine IBZKPT returns following result:
 ===========================================
 
 Found     72 irreducible k-points:
 
 Following reciprocal coordinates:
            Coordinates               Weight
  0.000000  0.000000  0.000000      1.000000
  0.083333  0.000000  0.000000      8.000000
  0.166667  0.000000  0.000000      8.000000
  0.250000  0.000000  0.000000      8.000000
  0.333333  0.000000  0.000000      8.000000
  0.416667  0.000000  0.000000      8.000000
  0.500000  0.000000  0.000000      4.000000
  0.083333  0.083333  0.000000      6.000000
  0.166667  0.083333  0.000000     24.000000
  0.250000  0.083333  0.000000     24.000000
  0.333333  0.083333  0.000000     24.000000
  0.416667  0.083333  0.000000     24.000000
  0.500000  0.083333  0.000000     24.000000
 -0.416667  0.083333  0.000000     24.000000
 -0.333333  0.083333  0.000000     24.000000
 -0.250000  0.083333  0.000000     24.000000
 -0.166667  0.083333  0.000000     24.000000
 -0.083333  0.083333  0.000000     12.000000
  0.166667  0.166667  0.000000      6.000000
  0.250000  0.166667  0.000000     24.000000
  0.333333  0.166667  0.000000     24.000000
  0.416667  0.166667  0.000000     24.000000
  0.500000  0.166667  0.000000     24.000000
 -0.416667  0.166667  0.000000     24.000000
 -0.333333  0.166667  0.000000     24.000000
 -0.250000  0.166667  0.000000     24.000000
 -0.166667  0.166667  0.000000     12.000000
  0.250000  0.250000  0.000000      6.000000
  0.333333  0.250000  0.000000     24.000000
  0.416667  0.250000  0.000000     24.000000
  0.500000  0.250000  0.000000     24.000000
 -0.416667  0.250000  0.000000     24.000000
 -0.333333  0.250000  0.000000     24.000000
 -0.250000  0.250000  0.000000     12.000000
  0.333333  0.333333  0.000000      6.000000
  0.416667  0.333333  0.000000     24.000000
  0.500000  0.333333  0.000000     24.000000
 -0.416667  0.333333  0.000000     24.000000
 -0.333333  0.333333  0.000000     12.000000
  0.416667  0.416667  0.000000      6.000000
  0.500000  0.416667  0.000000     24.000000
 -0.416667  0.416667  0.000000     12.000000
  0.500000  0.500000  0.000000      3.000000
  0.250000  0.166667  0.083333     24.000000
  0.333333  0.166667  0.083333     48.000000
  0.416667  0.166667  0.083333     48.000000
  0.500000  0.166667  0.083333     48.000000
 -0.416667  0.166667  0.083333     24.000000
  0.333333  0.250000  0.083333     24.000000
  0.416667  0.250000  0.083333     48.000000
  0.500000  0.250000  0.083333     48.000000
 -0.416667  0.250000  0.083333     48.000000
 -0.333333  0.250000  0.083333     48.000000
 -0.250000  0.250000  0.083333     48.000000
 -0.166667  0.250000  0.083333     24.000000
  0.416667  0.333333  0.083333     24.000000
  0.500000  0.333333  0.083333     48.000000
 -0.416667  0.333333  0.083333     48.000000
 -0.333333  0.333333  0.083333     48.000000
 -0.250000  0.333333  0.083333     24.000000
  0.500000  0.416667  0.083333     24.000000
 -0.416667  0.416667  0.083333     48.000000
 -0.333333  0.416667  0.083333     24.000000
 -0.416667  0.500000  0.083333     12.000000
  0.500000  0.333333  0.166667     24.000000
 -0.416667  0.333333  0.166667     48.000000
 -0.333333  0.333333  0.166667     24.000000
 -0.416667  0.416667  0.166667     24.000000
 -0.333333  0.416667  0.166667     48.000000
 -0.250000  0.416667  0.166667     24.000000
 -0.333333  0.500000  0.166667     12.000000
 -0.250000  0.500000  0.250000      6.000000
 
 Following cartesian coordinates:
            Coordinates               Weight
  0.000000  0.000000  0.000000      1.000000
 -0.083333  0.083333  0.083333      8.000000
 -0.166667  0.166667  0.166667      8.000000
 -0.250000  0.250000  0.250000      8.000000
 -0.333333  0.333333  0.333333      8.000000
 -0.416667  0.416667  0.416667      8.000000
 -0.500000  0.500000  0.500000      4.000000
  0.000000  0.000000  0.166667      6.000000
 -0.083333  0.083333  0.250000     24.000000
 -0.166667  0.166667  0.333333     24.000000
 -0.250000  0.250000  0.416667     24.000000
 -0.333333  0.333333  0.500000     24.000000
 -0.416667  0.416667  0.583333     24.000000
  0.500000 -0.500000 -0.333333     24.000000
  0.416667 -0.416667 -0.250000     24.000000
  0.333333 -0.333333 -0.166667     24.000000
  0.250000 -0.250000 -0.083333     24.000000
  0.166667 -0.166667  0.000000     12.000000
  0.000000  0.000000  0.333333      6.000000
 -0.083333  0.083333  0.416667     24.000000
 -0.166667  0.166667  0.500000     24.000000
 -0.250000  0.250000  0.583333     24.000000
 -0.333333  0.333333  0.666667     24.000000
  0.583333 -0.583333 -0.250000     24.000000
  0.500000 -0.500000 -0.166667     24.000000
  0.416667 -0.416667 -0.083333     24.000000
  0.333333 -0.333333  0.000000     12.000000
  0.000000  0.000000  0.500000      6.000000
 -0.083333  0.083333  0.583333     24.000000
 -0.166667  0.166667  0.666667     24.000000
 -0.250000  0.250000  0.750000     24.000000
  0.666667 -0.666667 -0.166667     24.000000
  0.583333 -0.583333 -0.083333     24.000000
  0.500000 -0.500000  0.000000     12.000000
  0.000000  0.000000  0.666667      6.000000
 -0.083333  0.083333  0.750000     24.000000
 -0.166667  0.166667  0.833333     24.000000
  0.750000 -0.750000 -0.083333     24.000000
  0.666667 -0.666667  0.000000     12.000000
  0.000000  0.000000  0.833333      6.000000
 -0.083333  0.083333  0.916667     24.000000
  0.833333 -0.833333  0.000000     12.000000
  0.000000  0.000000  1.000000      3.000000
  0.000000  0.166667  0.333333     24.000000
 -0.083333  0.250000  0.416667     48.000000
 -0.166667  0.333333  0.500000     48.000000
 -0.250000  0.416667  0.583333     48.000000
  0.666667 -0.500000 -0.333333     24.000000
  0.000000  0.166667  0.500000     24.000000
 -0.083333  0.250000  0.583333     48.000000
 -0.166667  0.333333  0.666667     48.000000
  0.750000 -0.583333 -0.250000     48.000000
  0.666667 -0.500000 -0.166667     48.000000
  0.583333 -0.416667 -0.083333     48.000000
  0.500000 -0.333333  0.000000     24.000000
 -0.000000  0.166667  0.666667     24.000000
 -0.083333  0.250000  0.750000     48.000000
  0.833333 -0.666667 -0.166667     48.000000
  0.750000 -0.583333 -0.083333     48.000000
  0.666667 -0.500000  0.000000     24.000000
  0.000000  0.166667  0.833333     24.000000
  0.916667 -0.750000 -0.083333     48.000000
  0.833333 -0.666667  0.000000     24.000000
  1.000000 -0.833333  0.000000     12.000000
  0.000000  0.333333  0.666667     24.000000
  0.916667 -0.583333 -0.250000     48.000000
  0.833333 -0.500000 -0.166667     24.000000
  1.000000 -0.666667 -0.166667     24.000000
  0.916667 -0.583333 -0.083333     48.000000
  0.833333 -0.500000  0.000000     24.000000
  1.000000 -0.666667  0.000000     12.000000
  1.000000 -0.500000  0.000000      6.000000
 


--------------------------------------------------------------------------------------------------------




 Dimension of arrays:
   k-points           NKPTS =     72   k-points in BZ     NKDIM =     72   number of bands    NBANDS=      8
   number of dos      NEDOS =    301   number of ions     NIONS =      2
   non local maximal  LDIM  =      4   non local SUM 2l+1 LMDIM =      8
   total plane-waves  NPLWV =  46656
   max r-space proj   IRMAX =      1   max aug-charges    IRDMAX=  12535
   dimension x,y,z NGX =    36 NGY =   36 NGZ =   36
   dimension x,y,z NGXF=    72 NGYF=   72 NGZF=   72
   support grid    NGXF=    72 NGYF=   72 NGZF=   72
   ions per type =               2
 NGX,Y,Z   is equivalent  to a cutoff of  10.62, 10.62, 10.62 a.u.
 NGXF,Y,Z  is equivalent  to a cutoff of  21.25, 21.25, 21.25 a.u.


 I would recommend the setting:
   dimension x,y,z NGX =    34 NGY =   34 NGZ =   34
 SYSTEM =  Si
 POSCAR =  Si

 Startparameter for this run:
   NWRITE =      2    write-flag & timer
   PREC   = normal    normal or accurate (medium, high low for compatibility)
   ISTART =      0    job   : 0-new  1-cont  2-samecut
   ICHARG =      2    charge: 1-file 2-atom 10-const
   ISPIN  =      1    spin polarized calculation?
   LNONCOLLINEAR =      F non collinear calculations
   LSORBIT =      F    spin-orbit coupling
   INIWAV =      1    electr: 0-lowe 1-rand  2-diag
   LASPH  =      F    aspherical Exc in radial PAW
   METAGGA=      F    non-selfconsistent MetaGGA calc.

 Electronic Relaxation 1
   ENCUT  =  600.0 eV  44.10 Ry    6.64 a.u.  11.25 11.25 11.25*2*pi/ulx,y,z
   ENINI  =  600.0     initial cutoff
   ENAUG  = 1200.0 eV  augmentation charge cutoff
   NELM   =    500;   NELMIN=  2; NELMDL= -5     # of ELM steps 
   EDIFF  = 0.1E-09   stopping-criterion for ELM
   LREAL  =      F    real-space projection
   NLSPLINE    = F    spline interpolate recip. space projectors
   LCOMPAT=      F    compatible to vasp.4.4
   GGA_COMPAT  = T    GGA compatible to vasp.4.4-vasp.4.6
   LMAXPAW     = -100 max onsite density
   LMAXMIX     =    2 max onsite mixed and CHGCAR
   VOSKOWN=      0    Vosko Wilk Nusair interpolation
   ROPT   =    0.00000
 Ionic relaxation
   EDIFFG = 0.1E-08   stopping-criterion for IOM
   NSW    =      0    number of steps for IOM
   NBLOCK =      1;   KBLOCK =      1    inner block; outer block 
   IBRION =     -1    ionic relax: 0-MD 1-quasi-New 2-CG
   NFREE  =      0    steps in history (QN), initial steepest desc. (CG)
   ISIF   =      2    stress and relaxation
   IWAVPR =     10    prediction:  0-non 1-charg 2-wave 3-comb
   ISYM   =      2    0-nonsym 1-usesym 2-fastsym
   LCORR  =      T    Harris-Foulkes like correction to forces

   POTIM  = 0.5000    time-step for ionic-motion
   TEIN   =    0.0    initial temperature
   TEBEG  =    0.0;   TEEND  =   0.0 temperature during run
   SMASS  =  -3.00    Nose mass-parameter (am)
   estimated Nose-frequenzy (Omega)   =  0.10E-29 period in steps =****** mass=  -0.725E-27a.u.
   SCALEE = 1.0000    scale energy and forces
   NPACO  =    256;   APACO  = 16.0  distance and # of slots for P.C.
   PSTRESS=    0.0 pullay stress

  Mass of Ions in am
   POMASS =  28.09
  Ionic Valenz
   ZVAL   =   4.00
  Atomic Wigner-Seitz radii
   RWIGS  =  -1.00
  virtual crystal weights 
   VCA    =   1.00
   NELECT =       8.0000    total number of electrons
   NUPDOWN=      -1.0000    fix difference up-down

 DOS related values:
   EMIN   =  10.00;   EMAX   =-10.00  energy-range for DOS
   EFERMI =   0.00
   ISMEAR =    -1;   SIGMA  =   0.03  broadening in eV -4-tet -1-fermi 0-gaus

 Electronic relaxation 2 (details)
   IALGO  =     38    algorithm
   LDIAG  =      T    sub-space diagonalisation (order eigenvalues)
   LSUBROT=      F    optimize rotation matrix (better conditioning)
   TURBO    =      0    0=normal 1=particle mesh
   IRESTART =      0    0=no restart 2=restart with 2 vectors
   NREBOOT  =      0    no. of reboots
   NMIN     =      0    reboot dimension
   EREF     =   0.00    reference energy to select bands
   IMIX   =      4    mixing-type and parameters
     AMIX     =   0.40;   BMIX     =  1.00
     AMIX_MAG =   1.60;   BMIX_MAG =  1.00
     AMIN     =   0.10
     WC   =   100.;   INIMIX=   1;  MIXPRE=   1;  MAXMIX= -45

 Intra band minimization:
   WEIMIN = 0.0000     energy-eigenvalue tresh-hold
   EBREAK =  0.31E-11  absolut break condition
   DEPER  =   0.30     relativ break condition  

   TIME   =   0.40     timestep for ELM

  volume/ion in A,a.u.               =      63.22       426.64
  Fermi-wavevector in a.u.,A,eV,Ry     =   0.652339  1.232741  5.789899  0.425546
  Thomas-Fermi vector in A             =   1.722227
 
 Write flags
   LWAVE  =      T    write WAVECAR
   LCHARG =      T    write CHGCAR
   LVTOT  =      F    write LOCPOT, total local potential
   LVHAR  =      F    write LOCPOT, Hartree potential only
   LELF   =      F    write electronic localiz. function (ELF)
   LORBIT =      0    0 simple, 1 ext, 2 COOP (PROOUT)


 Dipole corrections
   LMONO  =      F    monopole corrections only (constant potential shift)
   LDIPOL =      F    correct potential (dipole corrections)
   IDIPOL =      0    1-x, 2-y, 3-z, 4-all directions 
   EPSILON=  1.0000000 bulk dielectric constant

 Exchange correlation treatment:
   GGA     =    PE    GGA type
   LEXCH   =     8    internal setting for exchange type
   VOSKOWN=      0    Vosko Wilk Nusair interpolation
   LHFCALC =     F    Hartree Fock is set to
   LHFONE  =     F    Hartree Fock one center treatment
   AEXX    =    0.0000 exact exchange contribution

 Linear response parameters
   LEPSILON=     F    determine dielectric tensor
   LRPA    =     F    only Hartree local field effects (RPA)
   LNABLA  =     F    use nabla operator in PAW spheres
   LVEL    =     F    velocity operator in full k-point grid
   LINTERFAST=   F  fast interpolation
   KINTER  =     0    interpolate to denser k-point grid
   CSHIFT  =0.1000    complex shift for real part using Kramers Kronig
   OMEGAMAX=  -1.0    maximum frequency
   DEG_THRESHOLD= 0.2000000E-02 threshold for treating states as degnerate
   RTIME   =    0.100 relaxation time in fs

 Orbital magnetization related:
   ORBITALMAG=     F  switch on orbital magnetization
   LCHIMAG   =     F  perturbation theory with respect to B field
   DQ        =  0.001000  dq finite difference perturbation B field



--------------------------------------------------------------------------------------------------------


 Static calculation
 charge density and potential will be updated during run
 non-spin polarized calculation
 Variant of blocked Davidson
 Davidson routine will perform the subspace rotation
 perform sub-space diagonalisation
    after iterative eigenvector-optimisation
 modified Broyden-mixing scheme, WC =      100.0
 initial mixing is a Kerker type mixing with AMIX =  0.4000 and BMIX =      1.0000
 Hartree-type preconditioning will be used
 using additional bands            4
 reciprocal scheme for non local part
 use partial core corrections
 calculate Harris-corrections to forces 
   (improved forces if not selfconsistent)
 use gradient corrections 
 use of overlap-Matrix (Vanderbilt PP)
 Fermi-smearing in eV        SIGMA  =   0.03


--------------------------------------------------------------------------------------------------------


  energy-cutoff  :      600.00
  volume of cell :      126.44
      direct lattice vectors                 reciprocal lattice vectors
     0.000000000  3.983716857  3.983716857    -0.125510928  0.125510928  0.125510928
     3.983716857  0.000000000  3.983716857     0.125510928 -0.125510928  0.125510928
     3.983716857  3.983716857  0.000000000     0.125510928  0.125510928 -0.125510928

  length of vectors
     5.633826408  5.633826408  5.633826408     0.217391304  0.217391304  0.217391304


 
 k-points in units of 2pi/SCALE and weight: Gamma centered Monkhorst-Pack           
   0.00000000  0.00000000  0.00000000       0.001
  -0.08333333  0.08333333  0.08333333       0.005
  -0.16666667  0.16666667  0.16666667       0.005
  -0.25000000  0.25000000  0.25000000       0.005
  -0.33333333  0.33333333  0.33333333       0.005
  -0.41666667  0.41666667  0.41666667       0.005
  -0.50000000  0.50000000  0.50000000       0.002
   0.00000000  0.00000000  0.16666667       0.003
  -0.08333333  0.08333333  0.25000000       0.014
  -0.16666667  0.16666667  0.33333333       0.014
  -0.25000000  0.25000000  0.41666667       0.014
  -0.33333333  0.33333333  0.50000000       0.014
  -0.41666667  0.41666667  0.58333333       0.014
   0.50000000 -0.50000000 -0.33333333       0.014
   0.41666667 -0.41666667 -0.25000000       0.014
   0.33333333 -0.33333333 -0.16666667       0.014
   0.25000000 -0.25000000 -0.08333333       0.014
   0.16666667 -0.16666667  0.00000000       0.007
   0.00000000  0.00000000  0.33333333       0.003
  -0.08333333  0.08333333  0.41666667       0.014
  -0.16666667  0.16666667  0.50000000       0.014
  -0.25000000  0.25000000  0.58333333       0.014
  -0.33333333  0.33333333  0.66666667       0.014
   0.58333333 -0.58333333 -0.25000000       0.014
   0.50000000 -0.50000000 -0.16666667       0.014
   0.41666667 -0.41666667 -0.08333333       0.014
   0.33333333 -0.33333333  0.00000000       0.007
   0.00000000  0.00000000  0.50000000       0.003
  -0.08333333  0.08333333  0.58333333       0.014
  -0.16666667  0.16666667  0.66666667       0.014
  -0.25000000  0.25000000  0.75000000       0.014
   0.66666667 -0.66666667 -0.16666667       0.014
   0.58333333 -0.58333333 -0.08333333       0.014
   0.50000000 -0.50000000  0.00000000       0.007
   0.00000000  0.00000000  0.66666667       0.003
  -0.08333333  0.08333333  0.75000000       0.014
  -0.16666667  0.16666667  0.83333333       0.014
   0.75000000 -0.75000000 -0.08333333       0.014
   0.66666667 -0.66666667  0.00000000       0.007
   0.00000000  0.00000000  0.83333333       0.003
  -0.08333333  0.08333333  0.91666667       0.014
   0.83333333 -0.83333333  0.00000000       0.007
   0.00000000  0.00000000  1.00000000       0.002
   0.00000000  0.16666667  0.33333333       0.014
  -0.08333333  0.25000000  0.41666667       0.028
  -0.16666667  0.33333333  0.50000000       0.028
  -0.25000000  0.41666667  0.58333333       0.028
   0.66666667 -0.50000000 -0.33333333       0.014
   0.00000000  0.16666667  0.50000000       0.014
  -0.08333333  0.25000000  0.58333333       0.028
  -0.16666667  0.33333333  0.66666667       0.028
   0.75000000 -0.58333333 -0.25000000       0.028
   0.66666667 -0.50000000 -0.16666667       0.028
   0.58333333 -0.41666667 -0.08333333       0.028
   0.50000000 -0.33333333  0.00000000       0.014
  -0.00000000  0.16666667  0.66666667       0.014
  -0.08333333  0.25000000  0.75000000       0.028
   0.83333333 -0.66666667 -0.16666667       0.028
   0.75000000 -0.58333333 -0.08333333       0.028
   0.66666667 -0.50000000  0.00000000       0.014
   0.00000000  0.16666667  0.83333333       0.014
   0.91666667 -0.75000000 -0.08333333       0.028
   0.83333333 -0.66666667  0.00000000       0.014
   1.00000000 -0.83333333  0.00000000       0.007
   0.00000000  0.33333333  0.66666667       0.014
   0.91666667 -0.58333333 -0.25000000       0.028
   0.83333333 -0.50000000 -0.16666667       0.014
   1.00000000 -0.66666667 -0.16666667       0.014
   0.91666667 -0.58333333 -0.08333333       0.028
   0.83333333 -0.50000000  0.00000000       0.014
   1.00000000 -0.66666667  0.00000000       0.007
   1.00000000 -0.50000000  0.00000000       0.003
 
 k-points in reciprocal lattice and weights: Gamma centered Monkhorst-Pack           
   0.00000000  0.00000000  0.00000000       0.001
   0.08333333  0.00000000  0.00000000       0.005
   0.16666667  0.00000000  0.00000000       0.005
   0.25000000  0.00000000  0.00000000       0.005
   0.33333333  0.00000000  0.00000000       0.005
   0.41666667  0.00000000  0.00000000       0.005
   0.50000000  0.00000000  0.00000000       0.002
   0.08333333  0.08333333  0.00000000       0.003
   0.16666667  0.08333333  0.00000000       0.014
   0.25000000  0.08333333  0.00000000       0.014
   0.33333333  0.08333333  0.00000000       0.014
   0.41666667  0.08333333  0.00000000       0.014
   0.50000000  0.08333333  0.00000000       0.014
  -0.41666667  0.08333333  0.00000000       0.014
  -0.33333333  0.08333333  0.00000000       0.014
  -0.25000000  0.08333333  0.00000000       0.014
  -0.16666667  0.08333333  0.00000000       0.014
  -0.08333333  0.08333333  0.00000000       0.007
   0.16666667  0.16666667  0.00000000       0.003
   0.25000000  0.16666667  0.00000000       0.014
   0.33333333  0.16666667  0.00000000       0.014
   0.41666667  0.16666667  0.00000000       0.014
   0.50000000  0.16666667  0.00000000       0.014
  -0.41666667  0.16666667  0.00000000       0.014
  -0.33333333  0.16666667  0.00000000       0.014
  -0.25000000  0.16666667  0.00000000       0.014
  -0.16666667  0.16666667  0.00000000       0.007
   0.25000000  0.25000000  0.00000000       0.003
   0.33333333  0.25000000  0.00000000       0.014
   0.41666667  0.25000000  0.00000000       0.014
   0.50000000  0.25000000  0.00000000       0.014
  -0.41666667  0.25000000  0.00000000       0.014
  -0.33333333  0.25000000  0.00000000       0.014
  -0.25000000  0.25000000  0.00000000       0.007
   0.33333333  0.33333333  0.00000000       0.003
   0.41666667  0.33333333  0.00000000       0.014
   0.50000000  0.33333333  0.00000000       0.014
  -0.41666667  0.33333333  0.00000000       0.014
  -0.33333333  0.33333333  0.00000000       0.007
   0.41666667  0.41666667  0.00000000       0.003
   0.50000000  0.41666667  0.00000000       0.014
  -0.41666667  0.41666667  0.00000000       0.007
   0.50000000  0.50000000  0.00000000       0.002
   0.25000000  0.16666667  0.08333333       0.014
   0.33333333  0.16666667  0.08333333       0.028
   0.41666667  0.16666667  0.08333333       0.028
   0.50000000  0.16666667  0.08333333       0.028
  -0.41666667  0.16666667  0.08333333       0.014
   0.33333333  0.25000000  0.08333333       0.014
   0.41666667  0.25000000  0.08333333       0.028
   0.50000000  0.25000000  0.08333333       0.028
  -0.41666667  0.25000000  0.08333333       0.028
  -0.33333333  0.25000000  0.08333333       0.028
  -0.25000000  0.25000000  0.08333333       0.028
  -0.16666667  0.25000000  0.08333333       0.014
   0.41666667  0.33333333  0.08333333       0.014
   0.50000000  0.33333333  0.08333333       0.028
  -0.41666667  0.33333333  0.08333333       0.028
  -0.33333333  0.33333333  0.08333333       0.028
  -0.25000000  0.33333333  0.08333333       0.014
   0.50000000  0.41666667  0.08333333       0.014
  -0.41666667  0.41666667  0.08333333       0.028
  -0.33333333  0.41666667  0.08333333       0.014
  -0.41666667  0.50000000  0.08333333       0.007
   0.50000000  0.33333333  0.16666667       0.014
  -0.41666667  0.33333333  0.16666667       0.028
  -0.33333333  0.33333333  0.16666667       0.014
  -0.41666667  0.41666667  0.16666667       0.014
  -0.33333333  0.41666667  0.16666667       0.028
  -0.25000000  0.41666667  0.16666667       0.014
  -0.33333333  0.50000000  0.16666667       0.007
  -0.25000000  0.50000000  0.25000000       0.003
 
 position of ions in fractional coordinates (direct lattice) 
   0.00000000  0.00000000  0.00000000
   0.25000000  0.25000000  0.25000000
 
 position of ions in cartesian coordinates  (Angst):
   0.00000000  0.00000000  0.00000000
   1.99185843  1.99185843  1.99185843
 


--------------------------------------------------------------------------------------------------------


 k-point  1 :   0.0000 0.0000 0.0000  plane waves:    4279
 k-point  2 :   0.0833 0.0000 0.0000  plane waves:    4243
 k-point  3 :   0.1667 0.0000 0.0000  plane waves:    4228
 k-point  4 :   0.2500 0.0000 0.0000  plane waves:    4221
 k-point  5 :   0.3333 0.0000 0.0000  plane waves:    4206
 k-point  6 :   0.4167 0.0000 0.0000  plane waves:    4215
 k-point  7 :   0.5000 0.0000 0.0000  plane waves:    4236
 k-point  8 :   0.0833 0.0833 0.0000  plane waves:    4224
 k-point  9 :   0.1667 0.0833 0.0000  plane waves:    4220
 k-point 10 :   0.2500 0.0833 0.0000  plane waves:    4222
 k-point 11 :   0.3333 0.0833 0.0000  plane waves:    4222
 k-point 12 :   0.4167 0.0833 0.0000  plane waves:    4233
 k-point 13 :   0.5000 0.0833 0.0000  plane waves:    4231
 k-point 14 :  -0.4167 0.0833 0.0000  plane waves:    4226
 k-point 15 :  -0.3333 0.0833 0.0000  plane waves:    4224
 k-point 16 :  -0.2500 0.0833 0.0000  plane waves:    4227
 k-point 17 :  -0.1667 0.0833 0.0000  plane waves:    4221
 k-point 18 :  -0.0833 0.0833 0.0000  plane waves:    4229
 k-point 19 :   0.1667 0.1667 0.0000  plane waves:    4232
 k-point 20 :   0.2500 0.1667 0.0000  plane waves:    4210
 k-point 21 :   0.3333 0.1667 0.0000  plane waves:    4216
 k-point 22 :   0.4167 0.1667 0.0000  plane waves:    4218
 k-point 23 :   0.5000 0.1667 0.0000  plane waves:    4232
 k-point 24 :  -0.4167 0.1667 0.0000  plane waves:    4229
 k-point 25 :  -0.3333 0.1667 0.0000  plane waves:    4234
 k-point 26 :  -0.2500 0.1667 0.0000  plane waves:    4226
 k-point 27 :  -0.1667 0.1667 0.0000  plane waves:    4211
 k-point 28 :   0.2500 0.2500 0.0000  plane waves:    4208
 k-point 29 :   0.3333 0.2500 0.0000  plane waves:    4207
 k-point 30 :   0.4167 0.2500 0.0000  plane waves:    4208
 k-point 31 :   0.5000 0.2500 0.0000  plane waves:    4216
 k-point 32 :  -0.4167 0.2500 0.0000  plane waves:    4223
 k-point 33 :  -0.3333 0.2500 0.0000  plane waves:    4224
 k-point 34 :  -0.2500 0.2500 0.0000  plane waves:    4211
 k-point 35 :   0.3333 0.3333 0.0000  plane waves:    4208
 k-point 36 :   0.4167 0.3333 0.0000  plane waves:    4204
 k-point 37 :   0.5000 0.3333 0.0000  plane waves:    4220
 k-point 38 :  -0.4167 0.3333 0.0000  plane waves:    4215
 k-point 39 :  -0.3333 0.3333 0.0000  plane waves:    4241
 k-point 40 :   0.4167 0.4167 0.0000  plane waves:    4200
 k-point 41 :   0.5000 0.4167 0.0000  plane waves:    4217
 k-point 42 :  -0.4167 0.4167 0.0000  plane waves:    4218
 k-point 43 :   0.5000 0.5000 0.0000  plane waves:    4200
 k-point 44 :   0.2500 0.1667 0.0833  plane waves:    4209
 k-point 45 :   0.3333 0.1667 0.0833  plane waves:    4216
 k-point 46 :   0.4167 0.1667 0.0833  plane waves:    4224
 k-point 47 :   0.5000 0.1667 0.0833  plane waves:    4226
 k-point 48 :  -0.4167 0.1667 0.0833  plane waves:    4228
 k-point 49 :   0.3333 0.2500 0.0833  plane waves:    4209
 k-point 50 :   0.4167 0.2500 0.0833  plane waves:    4203
 k-point 51 :   0.5000 0.2500 0.0833  plane waves:    4209
 k-point 52 :  -0.4167 0.2500 0.0833  plane waves:    4225
 k-point 53 :  -0.3333 0.2500 0.0833  plane waves:    4230
 k-point 54 :  -0.2500 0.2500 0.0833  plane waves:    4212
 k-point 55 :  -0.1667 0.2500 0.0833  plane waves:    4226
 k-point 56 :   0.4167 0.3333 0.0833  plane waves:    4207
 k-point 57 :   0.5000 0.3333 0.0833  plane waves:    4219
 k-point 58 :  -0.4167 0.3333 0.0833  plane waves:    4221
 k-point 59 :  -0.3333 0.3333 0.0833  plane waves:    4218
 k-point 60 :  -0.2500 0.3333 0.0833  plane waves:    4216
 k-point 61 :   0.5000 0.4167 0.0833  plane waves:    4222
 k-point 62 :  -0.4167 0.4167 0.0833  plane waves:    4217
 k-point 63 :  -0.3333 0.4167 0.0833  plane waves:    4228
 k-point 64 :  -0.4167 0.5000 0.0833  plane waves:    4222
 k-point 65 :   0.5000 0.3333 0.1667  plane waves:    4205
 k-point 66 :  -0.4167 0.3333 0.1667  plane waves:    4221
 k-point 67 :  -0.3333 0.3333 0.1667  plane waves:    4216
 k-point 68 :  -0.4167 0.4167 0.1667  plane waves:    4220
 k-point 69 :  -0.3333 0.4167 0.1667  plane waves:    4217
 k-point 70 :  -0.2500 0.4167 0.1667  plane waves:    4218
 k-point 71 :  -0.3333 0.5000 0.1667  plane waves:    4232
 k-point 72 :  -0.2500 0.5000 0.2500  plane waves:    4188

 maximum and minimum number of plane-waves per node :      4279     4188

 maximum number of plane-waves:      4279
 maximum index in each direction: 
   IXMAX=   11   IYMAX=   11   IZMAX=   11
   IXMIN=  -11   IYMIN=  -11   IZMIN=  -11

 WARNING: aliasing errors must be expected set NGX to  46 to avoid them
 WARNING: aliasing errors must be expected set NGY to  46 to avoid them
 WARNING: aliasing errors must be expected set NGZ to  46 to avoid them
 aliasing errors are usually negligible using standard VASP settings
 and one can safely disregard these warnings

 serial   3D FFT for wavefunctions
 parallel 3D FFT for charge:
    minimum data exchange during FFTs selected (reduces bandwidth)


 total amount of memory used by VASP on root node    69618. kBytes
========================================================================

   base      :      30000. kBytes
   nonl-proj :      19859. kBytes
   fftplans  :       3408. kBytes
   grid      :       6448. kBytes
   one-center:          6. kBytes
   wavefun   :       9897. kBytes
 
     INWAV:  cpu time    0.00: real time    0.00
 Broyden mixing: mesh for mixing (old mesh)
   NGX = 23   NGY = 23   NGZ = 23
  (NGX  = 72   NGY  = 72   NGZ  = 72)
  gives a total of  12167 points

 initial charge density was supplied:
 charge density of overlapping atoms calculated
 number of electron       8.0000000 magnetization 
 keeping initial charge density in first step


--------------------------------------------------------------------------------------------------------


 Maximum index for augmentation-charges         3020 (set IRDMAX)


--------------------------------------------------------------------------------------------------------


 First call to EWALD:  gamma=   0.353
 Maximum number of real-space cells 3x 3x 3
 Maximum number of reciprocal cells 3x 3x 3

 FEWALD executed in parallel
    FEWALD:  cpu time    0.00: real time    0.00


----------------------------------------- Iteration    1(   1)  ---------------------------------------


    POTLOK:  cpu time    0.05: real time    0.07
    SETDIJ:  cpu time    0.00: real time    0.00
     EDDAV:  cpu time    1.04: real time    1.07
       DOS:  cpu time    0.00: real time    0.00
    --------------------------------------------
      LOOP:  cpu time    1.09: real time    1.15

 eigenvalue-minimisations  :  1152
 total energy-change (2. order) : 0.1111892E+02  (-0.2548359E+03)
 number of electron       8.0000000 magnetization 
 augmentation part        8.0000000 magnetization 

 Free energy of the ion-electron system (eV)
  ---------------------------------------------------
  alpha Z        PSCENC =         1.06492356
  Ewald energy   TEWEN  =      -155.77160536
  -Hartree energ DENC   =       -34.13578438
  -exchange      EXHF   =         0.00000000
  -V(xc)+E(xc)   XCENC  =       -21.52491756
  PAW double counting   =        65.95520812      -30.76852678
  entropy T*S    EENTRO =        -0.00211129
  eigenvalues    EBANDS =       -19.83138782
  atomic energy  EATOM  =       206.13311910
  ---------------------------------------------------
  free energy    TOTEN  =        11.11891757 eV

  energy without entropy =       11.12102887  energy(sigma->0) =       11.11997322


--------------------------------------------------------------------------------------------------------




----------------------------------------- Iteration    1(   2)  ---------------------------------------


     EDDAV:  cpu time    1.62: real time    1.71
       DOS:  cpu time    0.00: real time    0.00
    --------------------------------------------
      LOOP:  cpu time    1.62: real time    1.72

 eigenvalue-minimisations  :  2056
 total energy-change (2. order) :-0.1593104E+02  (-0.1564471E+02)
 number of electron       8.0000000 magnetization 
 augmentation part        8.0000000 magnetization 

 Free energy of the ion-electron system (eV)
  ---------------------------------------------------
  alpha Z        PSCENC =         1.06492356
  Ewald energy   TEWEN  =      -155.77160536
  -Hartree energ DENC   =       -34.13578438
  -exchange      EXHF   =         0.00000000
  -V(xc)+E(xc)   XCENC  =       -21.52491756
  PAW double counting   =        65.95520812      -30.76852678
  entropy T*S    EENTRO =        -0.00356805
  eigenvalues    EBANDS =       -35.76096688
  atomic energy  EATOM  =       206.13311910
  ---------------------------------------------------
  free energy    TOTEN  =        -4.81211825 eV

  energy without entropy =       -4.80855019  energy(sigma->0) =       -4.81033422


--------------------------------------------------------------------------------------------------------




----------------------------------------- Iteration    1(   3)  ---------------------------------------


     EDDAV:  cpu time    1.16: real time    1.22
       DOS:  cpu time    0.00: real time    0.00
    --------------------------------------------
      LOOP:  cpu time    1.16: real time    1.23

 eigenvalue-minimisations  :  1336
 total energy-change (2. order) :-0.5486765E+00  (-0.5456848E+00)
 number of electron       8.0000000 magnetization 
 augmentation part        8.0000000 magnetization 

 Free energy of the ion-electron system (eV)
  ---------------------------------------------------
  alpha Z        PSCENC =         1.06492356
  Ewald energy   TEWEN  =      -155.77160536
  -Hartree energ DENC   =       -34.13578438
  -exchange      EXHF   =         0.00000000
  -V(xc)+E(xc)   XCENC  =       -21.52491756
  PAW double counting   =        65.95520812      -30.76852678
  entropy T*S    EENTRO =        -0.00370671
  eigenvalues    EBANDS =       -36.30950468
  atomic energy  EATOM  =       206.13311910
  ---------------------------------------------------
  free energy    TOTEN  =        -5.36079471 eV

  energy without entropy =       -5.35708799  energy(sigma->0) =       -5.35894135


--------------------------------------------------------------------------------------------------------




----------------------------------------- Iteration    1(   4)  ---------------------------------------


     EDDAV:  cpu time    1.28: real time    1.36
       DOS:  cpu time    0.00: real time    0.00
    --------------------------------------------
      LOOP:  cpu time    1.28: real time    1.36

 eigenvalue-minimisations  :  1544
 total energy-change (2. order) :-0.6636710E-02  (-0.6615419E-02)
 number of electron       8.0000000 magnetization 
 augmentation part        8.0000000 magnetization 

 Free energy of the ion-electron system (eV)
  ---------------------------------------------------
  alpha Z        PSCENC =         1.06492356
  Ewald energy   TEWEN  =      -155.77160536
  -Hartree energ DENC   =       -34.13578438
  -exchange      EXHF   =         0.00000000
  -V(xc)+E(xc)   XCENC  =       -21.52491756
  PAW double counting   =        65.95520812      -30.76852678
  entropy T*S    EENTRO =        -0.00362561
  eigenvalues    EBANDS =       -36.31622250
  atomic energy  EATOM  =       206.13311910
  ---------------------------------------------------
  free energy    TOTEN  =        -5.36743142 eV

  energy without entropy =       -5.36380581  energy(sigma->0) =       -5.36561861


--------------------------------------------------------------------------------------------------------




----------------------------------------- Iteration    1(   5)  ---------------------------------------


     EDDAV:  cpu time    1.18: real time    1.25
       DOS:  cpu time    0.00: real time    0.00
    CHARGE:  cpu time    0.09: real time    0.09
    MIXING:  cpu time    0.00: real time    0.00
    --------------------------------------------
      LOOP:  cpu time    1.27: real time    1.35

 eigenvalue-minimisations  :  1376
 total energy-change (2. order) :-0.4429489E-04  (-0.4428776E-04)
 number of electron       8.0000000 magnetization 
 augmentation part       -0.5190453 magnetization 

 Broyden mixing:
  rms(total) = 0.10613E+00    rms(broyden)= 0.10613E+00
  rms(prec ) = 0.25568E+00
  weight for this iteration     100.00

 Free energy of the ion-electron system (eV)
  ---------------------------------------------------
  alpha Z        PSCENC =         1.06492356
  Ewald energy   TEWEN  =      -155.77160536
  -Hartree energ DENC   =       -34.13578438
  -exchange      EXHF   =         0.00000000
  -V(xc)+E(xc)   XCENC  =       -21.52491756
  PAW double counting   =        65.95520812      -30.76852678
  entropy T*S    EENTRO =        -0.00362400
  eigenvalues    EBANDS =       -36.31626840
  atomic energy  EATOM  =       206.13311910
  ---------------------------------------------------
  free energy    TOTEN  =        -5.36747571 eV

  energy without entropy =       -5.36385171  energy(sigma->0) =       -5.36566371


--------------------------------------------------------------------------------------------------------




----------------------------------------- Iteration    1(   6)  ---------------------------------------


    POTLOK:  cpu time    0.05: real time    0.08
    SETDIJ:  cpu time    0.00: real time    0.00
     EDDAV:  cpu time    1.08: real time    1.12
       DOS:  cpu time    0.00: real time    0.00
    CHARGE:  cpu time    0.09: real time    0.09
    MIXING:  cpu time    0.00: real time    0.00
    --------------------------------------------
      LOOP:  cpu time    1.22: real time    1.30

 eigenvalue-minimisations  :  1208
 total energy-change (2. order) :-0.4280284E-02  (-0.1393305E-02)
 number of electron       8.0000000 magnetization 
 augmentation part       -0.5232827 magnetization 

 Broyden mixing:
  rms(total) = 0.67298E-01    rms(broyden)= 0.67298E-01
  rms(prec ) = 0.16209E+00
  weight for this iteration     100.00

 eigenvalues of (default mixing * dielectric matrix)
  average eigenvalue GAMMA=   2.6717
  2.6717

 Free energy of the ion-electron system (eV)
  ---------------------------------------------------
  alpha Z        PSCENC =         1.06492356
  Ewald energy   TEWEN  =      -155.77160536
  -Hartree energ DENC   =       -33.69328917
  -exchange      EXHF   =         0.00000000
  -V(xc)+E(xc)   XCENC  =       -21.57843649
  PAW double counting   =        64.67614800      -29.44310520
  entropy T*S    EENTRO =        -0.00357421
  eigenvalues    EBANDS =       -36.75593621
  atomic energy  EATOM  =       206.13311910
  ---------------------------------------------------
  free energy    TOTEN  =        -5.37175600 eV

  energy without entropy =       -5.36818178  energy(sigma->0) =       -5.36996889


--------------------------------------------------------------------------------------------------------




----------------------------------------- Iteration    1(   7)  ---------------------------------------


    POTLOK:  cpu time    0.05: real time    0.08
    SETDIJ:  cpu time    0.00: real time    0.00
     EDDAV:  cpu time    1.13: real time    1.17
       DOS:  cpu time    0.00: real time    0.00
    CHARGE:  cpu time    0.09: real time    0.09
    MIXING:  cpu time    0.00: real time    0.01
    --------------------------------------------
      LOOP:  cpu time    1.28: real time    1.35

 eigenvalue-minimisations  :  1296
 total energy-change (2. order) :-0.5327739E-02  (-0.3021137E-02)
 number of electron       8.0000000 magnetization 
 augmentation part       -0.5302996 magnetization 

 Broyden mixing:
  rms(total) = 0.82475E-02    rms(broyden)= 0.82475E-02
  rms(prec ) = 0.24386E-01
  weight for this iteration     100.00

 eigenvalues of (default mixing * dielectric matrix)
  average eigenvalue GAMMA=   2.4689
  2.4689  2.4689

 Free energy of the ion-electron system (eV)
  ---------------------------------------------------
  alpha Z        PSCENC =         1.06492356
  Ewald energy   TEWEN  =      -155.77160536
  -Hartree energ DENC   =       -33.19732878
  -exchange      EXHF   =         0.00000000
  -V(xc)+E(xc)   XCENC  =       -21.63878376
  PAW double counting   =        62.97031936      -27.67635095
  entropy T*S    EENTRO =        -0.00352470
  eigenvalues    EBANDS =       -37.25785221
  atomic energy  EATOM  =       206.13311910
  ---------------------------------------------------
  free energy    TOTEN  =        -5.37708374 eV

  energy without entropy =       -5.37355904  energy(sigma->0) =       -5.37532139


--------------------------------------------------------------------------------------------------------




----------------------------------------- Iteration    1(   8)  ---------------------------------------


    POTLOK:  cpu time    0.05: real time    0.07
    SETDIJ:  cpu time    0.00: real time    0.00
     EDDAV:  cpu time    1.07: real time    1.11
       DOS:  cpu time    0.00: real time    0.00
    CHARGE:  cpu time    0.09: real time    0.10
    MIXING:  cpu time    0.00: real time    0.00
    --------------------------------------------
      LOOP:  cpu time    1.22: real time    1.29

 eigenvalue-minimisations  :  1208
 total energy-change (2. order) :-0.6286666E-04  (-0.1918846E-03)
 number of electron       8.0000000 magnetization 
 augmentation part       -0.5291784 magnetization 

 Broyden mixing:
  rms(total) = 0.28787E-02    rms(broyden)= 0.28787E-02
  rms(prec ) = 0.76343E-02
  weight for this iteration     100.00

 eigenvalues of (default mixing * dielectric matrix)
  average eigenvalue GAMMA=   2.0744
  1.0994  3.0114  2.1123

 Free energy of the ion-electron system (eV)
  ---------------------------------------------------
  alpha Z        PSCENC =         1.06492356
  Ewald energy   TEWEN  =      -155.77160536
  -Hartree energ DENC   =       -33.44651646
  -exchange      EXHF   =         0.00000000
  -V(xc)+E(xc)   XCENC  =       -21.61714973
  PAW double counting   =        63.44995106      -28.17760655
  entropy T*S    EENTRO =        -0.00351891
  eigenvalues    EBANDS =       -37.00874332
  atomic energy  EATOM  =       206.13311910
  ---------------------------------------------------
  free energy    TOTEN  =        -5.37714660 eV

  energy without entropy =       -5.37362769  energy(sigma->0) =       -5.37538715


--------------------------------------------------------------------------------------------------------




----------------------------------------- Iteration    1(   9)  ---------------------------------------


    POTLOK:  cpu time    0.05: real time    0.08
    SETDIJ:  cpu time    0.00: real time    0.00
     EDDAV:  cpu time    1.13: real time    1.16
       DOS:  cpu time    0.00: real time    0.00
    CHARGE:  cpu time    0.09: real time    0.09
    MIXING:  cpu time    0.00: real time    0.00
    --------------------------------------------
      LOOP:  cpu time    1.28: real time    1.34

 eigenvalue-minimisations  :  1296
 total energy-change (2. order) :-0.7873354E-04  (-0.7105963E-05)
 number of electron       8.0000000 magnetization 
 augmentation part       -0.5293969 magnetization 

 Broyden mixing:
  rms(total) = 0.11033E-02    rms(broyden)= 0.11033E-02
  rms(prec ) = 0.27087E-02
  weight for this iteration     100.00

 eigenvalues of (default mixing * dielectric matrix)
  average eigenvalue GAMMA=   2.3652
  0.9993  3.1169  3.1169  2.2278

 Free energy of the ion-electron system (eV)
  ---------------------------------------------------
  alpha Z        PSCENC =         1.06492356
  Ewald energy   TEWEN  =      -155.77160536
  -Hartree energ DENC   =       -33.45785980
  -exchange      EXHF   =         0.00000000
  -V(xc)+E(xc)   XCENC  =       -21.61678302
  PAW double counting   =        63.36889200      -28.09429516
  entropy T*S    EENTRO =        -0.00351591
  eigenvalues    EBANDS =       -37.00010074
  atomic energy  EATOM  =       206.13311910
  ---------------------------------------------------
  free energy    TOTEN  =        -5.37722534 eV

  energy without entropy =       -5.37370943  energy(sigma->0) =       -5.37546738


--------------------------------------------------------------------------------------------------------




----------------------------------------- Iteration    1(  10)  ---------------------------------------


    POTLOK:  cpu time    0.05: real time    0.07
    SETDIJ:  cpu time    0.00: real time    0.00
     EDDAV:  cpu time    1.06: real time    1.09
       DOS:  cpu time    0.00: real time    0.00
    CHARGE:  cpu time    0.09: real time    0.09
    MIXING:  cpu time    0.00: real time    0.00
    --------------------------------------------
      LOOP:  cpu time    1.20: real time    1.26

 eigenvalue-minimisations  :  1184
 total energy-change (2. order) :-0.4375606E-04  (-0.6294394E-05)
 number of electron       8.0000000 magnetization 
 augmentation part       -0.5293475 magnetization 

 Broyden mixing:
  rms(total) = 0.24593E-03    rms(broyden)= 0.24593E-03
  rms(prec ) = 0.56183E-03
  weight for this iteration     100.00

 eigenvalues of (default mixing * dielectric matrix)
  average eigenvalue GAMMA=   2.1375
  3.5876  2.7353  2.2551  1.0547  1.0547

 Free energy of the ion-electron system (eV)
  ---------------------------------------------------
  alpha Z        PSCENC =         1.06492356
  Ewald energy   TEWEN  =      -155.77160536
  -Hartree energ DENC   =       -33.47523857
  -exchange      EXHF   =         0.00000000
  -V(xc)+E(xc)   XCENC  =       -21.61502805
  PAW double counting   =        63.29211661      -28.01497821
  entropy T*S    EENTRO =        -0.00351352
  eigenvalues    EBANDS =       -36.98706465
  atomic energy  EATOM  =       206.13311910
  ---------------------------------------------------
  free energy    TOTEN  =        -5.37726909 eV

  energy without entropy =       -5.37375557  energy(sigma->0) =       -5.37551233


--------------------------------------------------------------------------------------------------------




----------------------------------------- Iteration    1(  11)  ---------------------------------------


    POTLOK:  cpu time    0.08: real time    0.08
    SETDIJ:  cpu time    0.00: real time    0.00
     EDDAV:  cpu time    1.38: real time    1.42
       DOS:  cpu time    0.00: real time    0.00
    CHARGE:  cpu time    0.09: real time    0.09
    MIXING:  cpu time    0.00: real time    0.00
    --------------------------------------------
      LOOP:  cpu time    1.55: real time    1.60

 eigenvalue-minimisations  :  1688
 total energy-change (2. order) :-0.1094033E-05  (-0.9118576E-07)
 number of electron       8.0000000 magnetization 
 augmentation part       -0.5293615 magnetization 

 Broyden mixing:
  rms(total) = 0.10079E-03    rms(broyden)= 0.10079E-03
  rms(prec ) = 0.21021E-03
  weight for this iteration     100.00

 eigenvalues of (default mixing * dielectric matrix)
  average eigenvalue GAMMA=   2.2804
  3.8671  3.0740  2.4699  2.2861  0.9925  0.9925

 Free energy of the ion-electron system (eV)
  ---------------------------------------------------
  alpha Z        PSCENC =         1.06492356
  Ewald energy   TEWEN  =      -155.77160536
  -Hartree energ DENC   =       -33.47793789
  -exchange      EXHF   =         0.00000000
  -V(xc)+E(xc)   XCENC  =       -21.61471291
  PAW double counting   =        63.29820712      -28.02132242
  entropy T*S    EENTRO =        -0.00351333
  eigenvalues    EBANDS =       -36.98442806
  atomic energy  EATOM  =       206.13311910
  ---------------------------------------------------
  free energy    TOTEN  =        -5.37727019 eV

  energy without entropy =       -5.37375686  energy(sigma->0) =       -5.37551352


--------------------------------------------------------------------------------------------------------




----------------------------------------- Iteration    1(  12)  ---------------------------------------


    POTLOK:  cpu time    0.08: real time    0.08
    SETDIJ:  cpu time    0.00: real time    0.00
     EDDAV:  cpu time    1.07: real time    1.07
       DOS:  cpu time    0.00: real time    0.00
    CHARGE:  cpu time    0.09: real time    0.09
    MIXING:  cpu time    0.00: real time    0.00
    --------------------------------------------
      LOOP:  cpu time    1.24: real time    1.25

 eigenvalue-minimisations  :  1152
 total energy-change (2. order) :-0.9406218E-06  (-0.7268300E-07)
 number of electron       8.0000000 magnetization 
 augmentation part       -0.5293532 magnetization 

 Broyden mixing:
  rms(total) = 0.22154E-04    rms(broyden)= 0.22154E-04
  rms(prec ) = 0.51158E-04
  weight for this iteration     100.00

 eigenvalues of (default mixing * dielectric matrix)
  average eigenvalue GAMMA=   2.2002
  3.9348  2.9721  2.8888  2.1285  1.4890  0.9939  0.9939

 Free energy of the ion-electron system (eV)
  ---------------------------------------------------
  alpha Z        PSCENC =         1.06492356
  Ewald energy   TEWEN  =      -155.77160536
  -Hartree energ DENC   =       -33.47876089
  -exchange      EXHF   =         0.00000000
  -V(xc)+E(xc)   XCENC  =       -21.61446904
  PAW double counting   =        63.30725967      -28.03065116
  entropy T*S    EENTRO =        -0.00351335
  eigenvalues    EBANDS =       -36.98357367
  atomic energy  EATOM  =       206.13311910
  ---------------------------------------------------
  free energy    TOTEN  =        -5.37727113 eV

  energy without entropy =       -5.37375778  energy(sigma->0) =       -5.37551445


--------------------------------------------------------------------------------------------------------




----------------------------------------- Iteration    1(  13)  ---------------------------------------


    POTLOK:  cpu time    0.05: real time    0.07
    SETDIJ:  cpu time    0.00: real time    0.00
     EDDAV:  cpu time    1.33: real time    1.33
       DOS:  cpu time    0.00: real time    0.00
    CHARGE:  cpu time    0.09: real time    0.09
    MIXING:  cpu time    0.00: real time    0.00
    --------------------------------------------
      LOOP:  cpu time    1.48: real time    1.51

 eigenvalue-minimisations  :  1560
 total energy-change (2. order) : 0.7020299E-07  (-0.1744076E-08)
 number of electron       8.0000000 magnetization 
 augmentation part       -0.5293569 magnetization 

 Broyden mixing:
  rms(total) = 0.52205E-05    rms(broyden)= 0.52204E-05
  rms(prec ) = 0.13806E-04
  weight for this iteration     100.00

 eigenvalues of (default mixing * dielectric matrix)
  average eigenvalue GAMMA=   2.2228
  4.0045  3.0723  3.0723  2.4158  2.2329  1.0164  1.0164  0.9518

 Free energy of the ion-electron system (eV)
  ---------------------------------------------------
  alpha Z        PSCENC =         1.06492356
  Ewald energy   TEWEN  =      -155.77160536
  -Hartree energ DENC   =       -33.47834801
  -exchange      EXHF   =         0.00000000
  -V(xc)+E(xc)   XCENC  =       -21.61450446
  PAW double counting   =        63.30592877      -28.02927004
  entropy T*S    EENTRO =        -0.00351335
  eigenvalues    EBANDS =       -36.98400127
  atomic energy  EATOM  =       206.13311910
  ---------------------------------------------------
  free energy    TOTEN  =        -5.37727106 eV

  energy without entropy =       -5.37375771  energy(sigma->0) =       -5.37551438


--------------------------------------------------------------------------------------------------------




----------------------------------------- Iteration    1(  14)  ---------------------------------------


    POTLOK:  cpu time    0.05: real time    0.07
    SETDIJ:  cpu time    0.00: real time    0.00
     EDDAV:  cpu time    1.06: real time    1.07
       DOS:  cpu time    0.00: real time    0.00
    CHARGE:  cpu time    0.09: real time    0.09
    MIXING:  cpu time    0.00: real time    0.00
    --------------------------------------------
      LOOP:  cpu time    1.21: real time    1.24

 eigenvalue-minimisations  :  1152
 total energy-change (2. order) : 0.1319751E-07  (-0.2302687E-09)
 number of electron       8.0000000 magnetization 
 augmentation part       -0.5293563 magnetization 

 Broyden mixing:
  rms(total) = 0.12767E-05    rms(broyden)= 0.12767E-05
  rms(prec ) = 0.30668E-05
  weight for this iteration     100.00

 eigenvalues of (default mixing * dielectric matrix)
  average eigenvalue GAMMA=   2.0953
  3.9626  3.1466  2.7400  2.7400  2.1730  1.0043  1.0043  0.9335  1.1536

 Free energy of the ion-electron system (eV)
  ---------------------------------------------------
  alpha Z        PSCENC =         1.06492356
  Ewald energy   TEWEN  =      -155.77160536
  -Hartree energ DENC   =       -33.47847622
  -exchange      EXHF   =         0.00000000
  -V(xc)+E(xc)   XCENC  =       -21.61449929
  PAW double counting   =        63.30554019      -28.02887574
  entropy T*S    EENTRO =        -0.00351334
  eigenvalues    EBANDS =       -36.98388395
  atomic energy  EATOM  =       206.13311910
  ---------------------------------------------------
  free energy    TOTEN  =        -5.37727104 eV

  energy without entropy =       -5.37375770  energy(sigma->0) =       -5.37551437


--------------------------------------------------------------------------------------------------------




----------------------------------------- Iteration    1(  15)  ---------------------------------------


    POTLOK:  cpu time    0.05: real time    0.08
    SETDIJ:  cpu time    0.00: real time    0.00
     EDDAV:  cpu time    0.72: real time    0.74
       DOS:  cpu time    0.00: real time    0.00
    CHARGE:  cpu time    0.09: real time    0.09
    MIXING:  cpu time    0.00: real time    0.00
    --------------------------------------------
      LOOP:  cpu time    0.87: real time    0.92

 eigenvalue-minimisations  :   632
 total energy-change (2. order) : 0.7790106E-09  (-0.3371378E-11)
 number of electron       8.0000000 magnetization 
 augmentation part       -0.5293562 magnetization 

 Broyden mixing:
  rms(total) = 0.18397E-06    rms(broyden)= 0.18397E-06
  rms(prec ) = 0.35028E-06
  weight for this iteration     100.00

 eigenvalues of (default mixing * dielectric matrix)
  average eigenvalue GAMMA=   2.1374
  3.9772  3.1474  2.7905  2.7905  2.1830  2.5035  1.0247  1.0247  0.9787  0.9544

 Free energy of the ion-electron system (eV)
  ---------------------------------------------------
  alpha Z        PSCENC =         1.06492356
  Ewald energy   TEWEN  =      -155.77160536
  -Hartree energ DENC   =       -33.47848856
  -exchange      EXHF   =         0.00000000
  -V(xc)+E(xc)   XCENC  =       -21.61449902
  PAW double counting   =        63.30551800      -28.02885312
  entropy T*S    EENTRO =        -0.00351334
  eigenvalues    EBANDS =       -36.98387230
  atomic energy  EATOM  =       206.13311910
  ---------------------------------------------------
  free energy    TOTEN  =        -5.37727104 eV

  energy without entropy =       -5.37375770  energy(sigma->0) =       -5.37551437


--------------------------------------------------------------------------------------------------------




----------------------------------------- Iteration    1(  16)  ---------------------------------------


    POTLOK:  cpu time    0.05: real time    0.08
    SETDIJ:  cpu time    0.00: real time    0.00
     EDDAV:  cpu time    0.69: real time    0.70
       DOS:  cpu time    0.00: real time    0.00
    CHARGE:  cpu time    0.09: real time    0.10
    MIXING:  cpu time    0.00: real time    0.00
    --------------------------------------------
      LOOP:  cpu time    0.83: real time    0.89

 eigenvalue-minimisations  :   576
 total energy-change (2. order) :-0.4970104E-09  (-0.9247881E-12)
 number of electron       8.0000000 magnetization 
 augmentation part       -0.5293562 magnetization 

 Broyden mixing:
  rms(total) = 0.50918E-07    rms(broyden)= 0.50916E-07
  rms(prec ) = 0.10745E-06
  weight for this iteration     100.00

 eigenvalues of (default mixing * dielectric matrix)
  average eigenvalue GAMMA=   2.0442
  3.9781  3.0570  2.9801  2.6646  2.6646  2.1848  1.0424  1.0424  0.9801  0.9458
  0.9458

 Free energy of the ion-electron system (eV)
  ---------------------------------------------------
  alpha Z        PSCENC =         1.06492356
  Ewald energy   TEWEN  =      -155.77160536
  -Hartree energ DENC   =       -33.47848700
  -exchange      EXHF   =         0.00000000
  -V(xc)+E(xc)   XCENC  =       -21.61449921
  PAW double counting   =        63.30553589      -28.02887119
  entropy T*S    EENTRO =        -0.00351334
  eigenvalues    EBANDS =       -36.98387348
  atomic energy  EATOM  =       206.13311910
  ---------------------------------------------------
  free energy    TOTEN  =        -5.37727104 eV

  energy without entropy =       -5.37375770  energy(sigma->0) =       -5.37551437


--------------------------------------------------------------------------------------------------------




----------------------------------------- Iteration    1(  17)  ---------------------------------------


    POTLOK:  cpu time    0.05: real time    0.10
    SETDIJ:  cpu time    0.00: real time    0.00
     EDDAV:  cpu time    0.68: real time    0.70
       DOS:  cpu time    0.00: real time    0.00
    CHARGE:  cpu time    0.09: real time    0.09
    MIXING:  cpu time    0.00: real time    0.00
    --------------------------------------------
      LOOP:  cpu time    0.83: real time    0.90

 eigenvalue-minimisations  :   576
 total energy-change (2. order) :-0.4753247E-09  (-0.2596496E-13)
 number of electron       8.0000000 magnetization 
 augmentation part       -0.5293562 magnetization 

 Broyden mixing:
  rms(total) = 0.26183E-07    rms(broyden)= 0.26179E-07
  rms(prec ) = 0.50054E-07
  weight for this iteration     100.00

 eigenvalues of (default mixing * dielectric matrix)
  average eigenvalue GAMMA=   2.0635
  3.9692  3.1003  2.9175  2.9175  2.5784  2.2197  2.1098  1.0641  0.9870  0.9870
  0.9556  0.9556

 Free energy of the ion-electron system (eV)
  ---------------------------------------------------
  alpha Z        PSCENC =         1.06492356
  Ewald energy   TEWEN  =      -155.77160536
  -Hartree energ DENC   =       -33.47848714
  -exchange      EXHF   =         0.00000000
  -V(xc)+E(xc)   XCENC  =       -21.61449913
  PAW double counting   =        63.30554465      -28.02888017
  entropy T*S    EENTRO =        -0.00351334
  eigenvalues    EBANDS =       -36.98387321
  atomic energy  EATOM  =       206.13311910
  ---------------------------------------------------
  free energy    TOTEN  =        -5.37727104 eV

  energy without entropy =       -5.37375770  energy(sigma->0) =       -5.37551437


--------------------------------------------------------------------------------------------------------




----------------------------------------- Iteration    1(  18)  ---------------------------------------


    POTLOK:  cpu time    0.05: real time    0.08
    SETDIJ:  cpu time    0.00: real time    0.00
     EDDAV:  cpu time    0.70: real time    0.72
       DOS:  cpu time    0.00: real time    0.00
    CHARGE:  cpu time    0.09: real time    0.09
    MIXING:  cpu time    0.00: real time    0.00
    --------------------------------------------
      LOOP:  cpu time    0.85: real time    0.90

 eigenvalue-minimisations  :   576
 total energy-change (2. order) : 0.1376748E-09  (-0.9250268E-13)
 number of electron       8.0000000 magnetization 
 augmentation part       -0.5293562 magnetization 

 Broyden mixing:
  rms(total) = 0.10347E-07    rms(broyden)= 0.10338E-07
  rms(prec ) = 0.37440E-07
  weight for this iteration     100.00

 eigenvalues of (default mixing * dielectric matrix)
  average eigenvalue GAMMA=   2.0353
  3.9811  3.2106  3.0059  3.0059  2.1783  2.5461  2.5461  1.0973  1.0099  1.0099
  0.9709  0.9482  0.9482

 Free energy of the ion-electron system (eV)
  ---------------------------------------------------
  alpha Z        PSCENC =         1.06492356
  Ewald energy   TEWEN  =      -155.77160536
  -Hartree energ DENC   =       -33.47848666
  -exchange      EXHF   =         0.00000000
  -V(xc)+E(xc)   XCENC  =       -21.61449915
  PAW double counting   =        63.30554206      -28.02887749
  entropy T*S    EENTRO =        -0.00351334
  eigenvalues    EBANDS =       -36.98387375
  atomic energy  EATOM  =       206.13311910
  ---------------------------------------------------
  free energy    TOTEN  =        -5.37727104 eV

  energy without entropy =       -5.37375770  energy(sigma->0) =       -5.37551437


--------------------------------------------------------------------------------------------------------




----------------------------------------- Iteration    1(  19)  ---------------------------------------


    POTLOK:  cpu time    0.05: real time    0.09
    SETDIJ:  cpu time    0.00: real time    0.00
     EDDAV:  cpu time    0.68: real time    0.71
       DOS:  cpu time    0.00: real time    0.00
    --------------------------------------------
      LOOP:  cpu time    0.74: real time    0.80

 eigenvalue-minimisations  :   576
 total energy-change (2. order) : 0.3012701E-10  (-0.6161066E-13)
 number of electron       8.0000000 magnetization 
 augmentation part       -0.5293562 magnetization 

 Free energy of the ion-electron system (eV)
  ---------------------------------------------------
  alpha Z        PSCENC =         1.06492356
  Ewald energy   TEWEN  =      -155.77160536
  -Hartree energ DENC   =       -33.47848718
  -exchange      EXHF   =         0.00000000
  -V(xc)+E(xc)   XCENC  =       -21.61449909
  PAW double counting   =        63.30554184      -28.02887728
  entropy T*S    EENTRO =        -0.00351334
  eigenvalues    EBANDS =       -36.98387330
  atomic energy  EATOM  =       206.13311910
  ---------------------------------------------------
  free energy    TOTEN  =        -5.37727104 eV

  energy without entropy =       -5.37375770  energy(sigma->0) =       -5.37551437


--------------------------------------------------------------------------------------------------------




 average (electrostatic) potential at core
  the test charge radii are     0.9892
  (the norm of the test charge is              1.0000)
       1 -91.5194       2 -91.5194
 
 
 
 E-fermi :  -1.3049     XC(G=0):  -5.5291     alpha+bet : -3.7937


 k-point     1 :       0.0000    0.0000    0.0000
  band No.  band energies     occupation 
      1      -8.5507      2.00000
      2      -5.8398      2.00000
      3      -1.1892      0.01933
      4      -1.1892      0.01933
      5      -1.1892      0.01933
      6       0.3281      0.00000
      7       0.3281      0.00000
      8       0.3281      0.00000

 k-point     2 :       0.0833    0.0000    0.0000
  band No.  band energies     occupation 
      1      -8.5249      2.00000
      2      -5.8947      2.00000
      3      -1.2252      0.07903
      4      -1.2252      0.07903
      5      -1.2141      0.05161
      6       0.3688      0.00000
      7       0.3806      0.00000
      8       0.3806      0.00000

 k-point     3 :       0.1667    0.0000    0.0000
  band No.  band energies     occupation 
      1      -8.4498      2.00000
      2      -6.0466      2.00000
      3      -1.3129      1.15765
      4      -1.3129      1.15765
      5      -1.2940      0.78515
      6       0.5116      0.00000
      7       0.5116      0.00000
      8       0.5154      0.00000

 k-point     4 :       0.2500    0.0000    0.0000
  band No.  band energies     occupation 
      1      -8.3331      2.00000
      2      -6.2625      2.00000
      3      -1.4157      1.97647
      4      -1.4148      1.97566
      5      -1.4148      1.97566
      6       0.6674      0.00000
      7       0.6674      0.00000
      8       0.7816      0.00000

 k-point     5 :       0.3333    0.0000    0.0000
  band No.  band energies     occupation 
      1      -8.1918      2.00000
      2      -6.4974      2.00000
      3      -1.5391      1.99983
      4      -1.5027      1.99927
      5      -1.5027      1.99927
      6       0.8015      0.00000
      7       0.8015      0.00000
      8       1.1162      0.00000

 k-point     6 :       0.4167    0.0000    0.0000
  band No.  band energies     occupation 
      1      -8.0620      2.00000
      2      -6.6927      2.00000
      3      -1.6271      1.99999
      4      -1.5604      1.99993
      5      -1.5604      1.99993
      6       0.8874      0.00000
      7       0.8874      0.00000
      8       1.4136      0.00000

 k-point     7 :       0.5000    0.0000    0.0000
  band No.  band energies     occupation 
      1      -8.0051      2.00000
      2      -6.7729      2.00000
      3      -1.6586      2.00000
      4      -1.5803      1.99997
      5      -1.5803      1.99997
      6       0.9164      0.00000
      7       0.9164      0.00000
      8       1.5376      0.00000

 k-point     8 :       0.0833    0.0833    0.0000
  band No.  band energies     occupation 
      1      -8.5162      2.00000
      2      -5.9128      2.00000
      3      -1.2811      0.55631
      4      -1.2811      0.55630
      5      -1.1223      0.00134
      6       0.2528      0.00000
      7       0.4572      0.00000
      8       0.4572      0.00000

 k-point     9 :       0.1667    0.0833    0.0000
  band No.  band energies     occupation 
      1      -8.4570      2.00000
      2      -6.0319      2.00000
      3      -1.3918      1.93987
      4      -1.3791      1.90209
      5      -1.0912      0.00039
      6       0.2468      0.00000
      7       0.6041      0.00000
      8       0.6145      0.00000

 k-point    10 :       0.2500    0.0833    0.0000
  band No.  band energies     occupation 
      1      -8.3530      2.00000
      2      -6.2262      2.00000
      3      -1.5457      1.99987
      4      -1.4819      1.99831
      5      -1.1183      0.00115
      6       0.3655      0.00000
      7       0.7669      0.00000
      8       0.8374      0.00000

 k-point    11 :       0.3333    0.0833    0.0000
  band No.  band energies     occupation 
      1      -8.2170      2.00000
      2      -6.4556      2.00000
      3      -1.7035      2.00000
      4      -1.5637      1.99994
      5      -1.1794      0.01313
      6       0.5538      0.00000
      7       0.8996      0.00000
      8       1.1030      0.00000

 k-point    12 :       0.4167    0.0833    0.0000
  band No.  band energies     occupation 
      1      -8.0770      2.00000
      2      -6.6686      2.00000
      3      -1.8274      2.00000
      4      -1.6108      1.99999
      5      -1.2427      0.15350
      6       0.7276      0.00000
      7       0.9751      0.00000
      8       1.3671      0.00000

 k-point    13 :       0.5000    0.0833    0.0000
  band No.  band energies     occupation 
      1      -7.9875      2.00000
      2      -6.7946      2.00000
      3      -1.8950      2.00000
      4      -1.6175      1.99999
      5      -1.2850      0.62125
      6       0.8369      0.00000
      7       0.9858      0.00000
      8       1.5312      0.00000

 k-point    14 :      -0.4167    0.0833    0.0000
  band No.  band energies     occupation 
      1      -8.0077      2.00000
      2      -6.7667      2.00000
      3      -1.8971      2.00000
      4      -1.5834      1.99997
      5      -1.2951      0.80606
      6       0.8680      0.00000
      7       0.9351      0.00000
      8       1.4924      0.00000

 k-point    15 :      -0.3333    0.0833    0.0000
  band No.  band energies     occupation 
      1      -8.1222      2.00000
      2      -6.6021      2.00000
      3      -1.8336      2.00000
      4      -1.5132      1.99952
      5      -1.2729      0.43424
      6       0.8091      0.00000
      7       0.8296      0.00000
      8       1.2816      0.00000

 k-point    16 :      -0.2500    0.0833    0.0000
  band No.  band energies     occupation 
      1      -8.2654      2.00000
      2      -6.3768      2.00000
      3      -1.7128      2.00000
      4      -1.4173      1.97795
      5      -1.2301      0.09565
      6       0.6546      0.00000
      7       0.6834      0.00000
      8       1.0304      0.00000

 k-point    17 :      -0.1667    0.0833    0.0000
  band No.  band energies     occupation 
      1      -8.3927      2.00000
      2      -6.1543      2.00000
      3      -1.5515      1.99990
      4      -1.3156      1.20997
      5      -1.1924      0.02195
      6       0.4732      0.00000
      7       0.5269      0.00000
      8       0.7978      0.00000

 k-point    18 :      -0.0833    0.0833    0.0000
  band No.  band energies     occupation 
      1      -8.4825      2.00000
      2      -5.9816      2.00000
      3      -1.3759      1.88943
      4      -1.2397      0.13728
      5      -1.1869      0.01768
      6       0.3702      0.00000
      7       0.4090      0.00000
      8       0.5736      0.00000

 k-point    19 :       0.1667    0.1667    0.0000
  band No.  band energies     occupation 
      1      -8.4138      2.00000
      2      -6.1139      2.00000
      3      -1.4829      1.99838
      4      -1.4829      1.99838
      5      -0.9497      0.00000
      6       0.0782      0.00000
      7       0.7664      0.00000
      8       0.7664      0.00000

 k-point    20 :       0.2500    0.1667    0.0000
  band No.  band energies     occupation 
      1      -8.3236      2.00000
      2      -6.2758      2.00000
      3      -1.6210      1.99999
      4      -1.5877      1.99998
      5      -0.8814      0.00000
      6       0.0632      0.00000
      7       0.9437      0.00000
      8       0.9677      0.00000

 k-point    21 :       0.3333    0.1667    0.0000
  band No.  band energies     occupation 
      1      -8.1960      2.00000
      2      -6.4856      2.00000
      3      -1.7970      2.00000
      4      -1.6683      2.00000
      5      -0.8737      0.00000
      6       0.1982      0.00000
[...]
      8       1.6333      0.00000

 k-point    37 :       0.5000    0.3333    0.0000
  band No.  band energies     occupation 
      1      -7.7328      2.00000
      2      -7.1038      2.00000
      3      -2.1266      2.00000
      4      -1.9248      2.00000
      5      -0.5004      0.00000
      6      -0.0119      0.00000
      7       1.6427      0.00000
      8       1.6785      0.00000

 k-point    38 :      -0.4167    0.3333    0.0000
  band No.  band energies     occupation 
      1      -7.6491      2.00000
      2      -7.1982      2.00000
      3      -2.2448      2.00000
      4      -1.8847      2.00000
      5      -0.5413      0.00000
      6       0.2811      0.00000
      7       1.5609      0.00000
      8       1.6397      0.00000

 k-point    39 :      -0.3333    0.3333    0.0000
  band No.  band energies     occupation 
      1      -7.7273      2.00000
      2      -7.1093      2.00000
      3      -2.2876      2.00000
      4      -1.8047      2.00000
      5      -0.6241      0.00000
      6       0.5315      0.00000
      7       1.3951      0.00000
      8       1.5543      0.00000

 k-point    40 :       0.4167    0.4167    0.0000
  band No.  band energies     occupation 
      1      -7.7462      2.00000
      2      -7.0893      2.00000
      3      -1.9782      2.00000
      4      -1.9782      2.00000
      5      -0.4586      0.00000
      6      -0.3495      0.00000
      7       1.7698      0.00000
      8       1.7698      0.00000

 k-point    41 :       0.5000    0.4167    0.0000
  band No.  band energies     occupation 
      1      -7.5908      2.00000
      2      -7.2640      2.00000
      3      -2.0562      2.00000
      4      -1.9923      2.00000
      5      -0.4258      0.00000
      6      -0.2877      0.00000
      7       1.8105      0.00000
      8       1.8128      0.00000

 k-point    42 :      -0.4167    0.4167    0.0000
  band No.  band energies     occupation 
      1      -7.5105      2.00000
      2      -7.3480      2.00000
      3      -2.1702      2.00000
      4      -1.9596      2.00000
      5      -0.4554      0.00000
      6      -0.0319      0.00000
      7       1.7346      0.00000
      8       1.7512      0.00000

 k-point    43 :       0.5000    0.5000    0.0000
  band No.  band energies     occupation 
      1      -7.4308      2.00000
      2      -7.4308      2.00000
      3      -2.0158      2.00000
      4      -2.0158      2.00000
      5      -0.4035      0.00000
      6      -0.4035      0.00000
      7       1.8716      0.00000
      8       1.8716      0.00000

 k-point    44 :       0.2500    0.1667    0.0833
  band No.  band energies     occupation 
      1      -8.3827      2.00000
      2      -6.1719      2.00000
      3      -1.5801      1.99997
      4      -1.4291      1.98619
      5      -1.0235      0.00003
      6       0.2263      0.00000
      7       0.7161      0.00000
      8       0.8493      0.00000

 k-point    45 :       0.3333    0.1667    0.0833
  band No.  band energies     occupation 
      1      -8.2666      2.00000
      2      -6.3730      2.00000
      3      -1.7687      2.00000
      4      -1.5095      1.99944
      5      -1.0002      0.00001
      6       0.3331      0.00000
      7       0.8694      0.00000
      8       1.0730      0.00000

 k-point    46 :       0.4167    0.1667    0.0833
  band No.  band energies     occupation 
      1      -8.1248      2.00000
      2      -6.5953      2.00000
      3      -1.9240      2.00000
      4      -1.5929      1.99998
      5      -1.0130      0.00002
      6       0.5172      0.00000
      7       1.0034      0.00000
      8       1.2804      0.00000

 k-point    47 :       0.5000    0.1667    0.0833
  band No.  band energies     occupation 
      1      -7.9920      2.00000
      2      -6.7845      2.00000
      3      -2.0253      2.00000
      4      -1.6514      2.00000
      5      -1.0359      0.00004
      6       0.6852      0.00000
      7       1.0711      0.00000
      8       1.4638      0.00000

 k-point    48 :      -0.4167    0.1667    0.0833
  band No.  band energies     occupation 
      1      -7.9325      2.00000
      2      -6.8642      2.00000
      3      -2.0604      2.00000
      4      -1.6721      2.00000
      5      -1.0462      0.00006
      6       0.7531      0.00000
      7       1.0863      0.00000
      8       1.5448      0.00000

 k-point    49 :       0.3333    0.2500    0.0833
  band No.  band energies     occupation 
      1      -8.2203      2.00000
      2      -6.4463      2.00000
      3      -1.7882      2.00000
      4      -1.6565      2.00000
      5      -0.7888      0.00000
      6       0.0458      0.00000
      7       1.1034      0.00000
      8       1.1730      0.00000

 k-point    50 :       0.4167    0.2500    0.0833
  band No.  band energies     occupation 
      1      -8.0840      2.00000
      2      -6.6520      2.00000
      3      -1.9585      2.00000
      4      -1.7289      2.00000
      5      -0.7400      0.00000
      6       0.1698      0.00000
      7       1.2391      0.00000
      8       1.3447      0.00000

 k-point    51 :       0.5000    0.2500    0.0833
  band No.  band energies     occupation 
      1      -7.9400      2.00000
      2      -6.8499      2.00000
      3      -2.0976      2.00000
      4      -1.7770      2.00000
      5      -0.7363      0.00000
      6       0.3775      0.00000
      7       1.2971      0.00000
      8       1.4790      0.00000

 k-point    52 :      -0.4167    0.2500    0.0833
  band No.  band energies     occupation 
      1      -7.8453      2.00000
      2      -6.9707      2.00000
      3      -2.1802      2.00000
      4      -1.7820      2.00000
      5      -0.7540      0.00000
      6       0.5594      0.00000
      7       1.2813      0.00000
      8       1.5443      0.00000

 k-point    53 :      -0.3333    0.2500    0.0833
  band No.  band energies     occupation 
      1      -7.8723      2.00000
      2      -6.9368      2.00000
      3      -2.1901      2.00000
      4      -1.7421      2.00000
      5      -0.7780      0.00000
      6       0.6159      0.00000
      7       1.2241      0.00000
      8       1.5078      0.00000

 k-point    54 :      -0.2500    0.2500    0.0833
  band No.  band energies     occupation 
      1      -7.9965      2.00000
      2      -6.7745      2.00000
      3      -2.1210      2.00000
      4      -1.6665      2.00000
      5      -0.8158      0.00000
      6       0.5298      0.00000
      7       1.1385      0.00000
      8       1.3970      0.00000

 k-point    55 :      -0.1667    0.2500    0.0833
  band No.  band energies     occupation 
      1      -8.1418      2.00000
      2      -6.5680      2.00000
      3      -1.9761      2.00000
      4      -1.5765      1.99996
      5      -0.8888      0.00000
      6       0.4004      0.00000
      7       1.0064      0.00000
      8       1.2596      0.00000

 k-point    56 :       0.4167    0.3333    0.0833
  band No.  band energies     occupation 
      1      -8.0015      2.00000
      2      -6.7665      2.00000
      3      -1.9483      2.00000
      4      -1.8513      2.00000
      5      -0.5701      0.00000
      6      -0.1080      0.00000
      7       1.4660      0.00000
      8       1.4724      0.00000

 k-point    57 :       0.5000    0.3333    0.0833
  band No.  band energies     occupation 
      1      -7.8531      2.00000
      2      -6.9591      2.00000
      3      -2.0880      2.00000
      4      -1.9015      2.00000
      5      -0.5113      0.00000
      6       0.0392      0.00000
      7       1.5268      0.00000
      8       1.5716      0.00000

 k-point    58 :      -0.4167    0.3333    0.0833
  band No.  band energies     occupation 
      1      -7.7291      2.00000
      2      -7.1075      2.00000
      3      -2.2070      2.00000
      4      -1.9021      2.00000
      5      -0.5150      0.00000
      6       0.2788      0.00000
      7       1.5001      0.00000
      8       1.5934      0.00000

 k-point    59 :      -0.3333    0.3333    0.0833
  band No.  band energies     occupation 
      1      -7.7272      2.00000
      2      -7.1094      2.00000
      3      -2.2642      2.00000
      4      -1.8533      2.00000
      5      -0.5610      0.00000
      6       0.4771      0.00000
      7       1.4083      0.00000
      8       1.5477      0.00000

 k-point    60 :      -0.2500    0.3333    0.0833
  band No.  band energies     occupation 
      1      -7.8489      2.00000
      2      -6.9641      2.00000
      3      -2.2375      2.00000
      4      -1.7669      2.00000
      5      -0.6562      0.00000
      6       0.5472      0.00000
      7       1.2853      0.00000
      8       1.4717      0.00000

 k-point    61 :       0.5000    0.4167    0.0833
  band No.  band energies     occupation 
      1      -7.7346      2.00000
      2      -7.1020      2.00000
      3      -2.0389      2.00000
      4      -1.9876      2.00000
      5      -0.4123      0.00000
      6      -0.2213      0.00000
      7       1.7007      0.00000
      8       1.7227      0.00000

 k-point    62 :      -0.4167    0.4167    0.0833
  band No.  band energies     occupation 
      1      -7.5885      2.00000
      2      -7.2649      2.00000
      3      -2.1494      2.00000
      4      -1.9983      2.00000
      5      -0.3728      0.00000
      6      -0.0402      0.00000
      7       1.6828      0.00000
      8       1.7095      0.00000

 k-point    63 :      -0.3333    0.4167    0.0833
  band No.  band energies     occupation 
      1      -7.5849      2.00000
      2      -7.2680      2.00000
      3      -2.2440      2.00000
      4      -1.9463      2.00000
      5      -0.4286      0.00000
      6       0.2425      0.00000
      7       1.5738      0.00000
      8       1.6286      0.00000

 k-point    64 :      -0.4167    0.5000    0.0833
  band No.  band energies     occupation 
      1      -7.4303      2.00000
      2      -7.4303      2.00000
      3      -2.0521      2.00000
      4      -2.0521      2.00000
      5      -0.3097      0.00000
      6      -0.3097      0.00000
      7       1.8033      0.00000
      8       1.8033      0.00000

 k-point    65 :       0.5000    0.3333    0.1667
  band No.  band energies     occupation 
      1      -7.9425      2.00000
      2      -6.8452      2.00000
      3      -2.1075      2.00000
      4      -1.8068      2.00000
      5      -0.6042      0.00000
      6       0.2327      0.00000
      7       1.3709      0.00000
      8       1.4396      0.00000

 k-point    66 :      -0.4167    0.3333    0.1667
  band No.  band energies     occupation 
      1      -7.7991      2.00000
      2      -7.0246      2.00000
      3      -2.2029      2.00000
      4      -1.8777      2.00000
      5      -0.5195      0.00000
      6       0.3524      0.00000
      7       1.4198      0.00000
      8       1.5106      0.00000

 k-point    67 :      -0.3333    0.3333    0.1667
  band No.  band energies     occupation 
      1      -7.7272      2.00000
      2      -7.1094      2.00000
      3      -2.2355      2.00000
      4      -1.9053      2.00000
      5      -0.4947      0.00000
      6       0.4184      0.00000
      7       1.4217      0.00000
      8       1.5401      0.00000

 k-point    68 :      -0.4167    0.4167    0.1667
  band No.  band energies     occupation 
      1      -7.7014      2.00000
      2      -7.1388      2.00000
      3      -2.1563      2.00000
      4      -1.9962      2.00000
      5      -0.3340      0.00000
      6       0.0674      0.00000
      7       1.5728      0.00000
      8       1.5992      0.00000

 k-point    69 :      -0.3333    0.4167    0.1667
  band No.  band energies     occupation 
      1      -7.5863      2.00000
      2      -7.2659      2.00000
      3      -2.2111      2.00000
      4      -2.0302      2.00000
      5      -0.2621      0.00000
      6       0.1815      0.00000
      7       1.5460      0.00000
      8       1.5765      0.00000

 k-point    70 :      -0.2500    0.4167    0.1667
  band No.  band energies     occupation 
      1      -7.6500      2.00000
      2      -7.1961      2.00000
      3      -2.2388      2.00000
      4      -1.9781      2.00000
      5      -0.3389      0.00000
      6       0.2998      0.00000
      7       1.4959      0.00000
      8       1.5360      0.00000

 k-point    71 :      -0.3333    0.5000    0.1667
  band No.  band energies     occupation 
      1      -7.4293      2.00000
      2      -7.4293      2.00000
      3      -2.1174      2.00000
      4      -2.1174      2.00000
      5      -0.1123      0.00000
      6      -0.1123      0.00000
      7       1.6482      0.00000
      8       1.6482      0.00000

 k-point    72 :      -0.2500    0.5000    0.2500
  band No.  band energies     occupation 
      1      -7.4288      2.00000
      2      -7.4288      2.00000
      3      -2.1472      2.00000
      4      -2.1472      2.00000
      5      -0.0041      0.00000
      6      -0.0041      0.00000
      7       1.5577      0.00000
      8       1.5577      0.00000


--------------------------------------------------------------------------------------------------------


 soft charge-density along one line, spin component           1
         0         1         2         3         4         5         6         7         8         9
 total charge-density along one line
 
 pseudopotential strength for first ion, spin component:           1
 19.315   0.006   0.000   0.000   0.000  -0.000  -0.000  -0.000
  0.006   0.006  -0.000  -0.000  -0.000   0.000   0.000   0.000
  0.000  -0.000   4.292  -0.000  -0.000   0.001   0.000   0.000
  0.000  -0.000  -0.000   4.292  -0.000   0.000   0.001   0.000
  0.000  -0.000  -0.000  -0.000   4.292   0.000   0.000   0.001
 -0.000   0.000   0.001   0.000   0.000   0.004  -0.000  -0.000
 -0.000   0.000   0.000   0.001   0.000  -0.000   0.004  -0.000
 -0.000   0.000   0.000   0.000   0.001  -0.000  -0.000   0.004
 total augmentation occupancy for first ion, spin component:           1
  1.955   0.142   0.000   0.000   0.000   0.000   0.000  -0.000
  0.142   0.064   0.000   0.000   0.000   0.000   0.000   0.000
  0.000   0.000   0.609   0.000  -0.000  -0.080   0.000   0.000
  0.000   0.000  -0.000   0.609  -0.000   0.000  -0.080   0.000
  0.000   0.000   0.000  -0.000   0.609   0.000   0.000  -0.080
  0.000   0.000  -0.080   0.000   0.000   0.015  -0.000   0.000
  0.000   0.000   0.000  -0.080   0.000  -0.000   0.015  -0.000
  0.000   0.000   0.000   0.000  -0.080  -0.000   0.000   0.015


------------------------ aborting loop because EDIFF is reached ----------------------------------------


    CHARGE:  cpu time    0.09: real time    0.13
    FORLOC:  cpu time    0.00: real time    0.00
    FORNL :  cpu time    0.09: real time    0.09
    STRESS:  cpu time    0.82: real time    0.84
    FORCOR:  cpu time    0.05: real time    0.05
    FORHAR:  cpu time    0.02: real time    0.02
    MIXING:  cpu time    0.00: real time    0.00
    OFIELD:  cpu time    0.00: real time    0.00

  FORCE on cell =-STRESS in cart. coord.  units (eV):
  Direction    XX          YY          ZZ          XY          YZ          ZX
  --------------------------------------------------------------------------------------
  Alpha Z     1.06492     1.06492     1.06492
  Ewald     -51.92389   -51.92389   -51.92389    -0.00000     0.00000     0.00000
  Hartree    11.15950    11.15950    11.15950     0.00000     0.00000     0.00000
  E(xc)     -21.79471   -21.79471   -21.79471    -0.00000    -0.00000    -0.00000
  Local     -52.11848   -52.11848   -52.11848     0.00001     0.00001     0.00001
  n-local    78.48968    80.00553    74.12313     1.20338    -0.34344    -0.16071
  augment   -13.54858   -13.54858   -13.54858    -0.00001    -0.00001    -0.00001
  Kinetic    46.40690    48.77535    37.82763     2.55485    -0.97166     0.34067
  Fock        0.00000     0.00000     0.00000     0.00000     0.00000     0.00000
  -------------------------------------------------------------------------------------
  Total      -5.28517    -5.28517    -5.28517     0.00000    -0.00000    -0.00000
  in kB     -66.96900   -66.96900   -66.96900     0.00000    -0.00000    -0.00000
  external pressure =      -66.97 kB  Pullay stress =        0.00 kB


 VOLUME and BASIS-vectors are now :
 -----------------------------------------------------------------------------
  energy-cutoff  :      600.00
  volume of cell :      126.44
      direct lattice vectors                 reciprocal lattice vectors
     0.000000000  3.983716857  3.983716857    -0.125510928  0.125510928  0.125510928
     3.983716857  0.000000000  3.983716857     0.125510928 -0.125510928  0.125510928
     3.983716857  3.983716857  0.000000000     0.125510928  0.125510928 -0.125510928

  length of vectors
     5.633826408  5.633826408  5.633826408     0.217391304  0.217391304  0.217391304


 FORCES acting on ions
    electron-ion (+dipol)            ewald-force                    non-local-force                 convergence-correction
 -----------------------------------------------------------------------------------------------
   0.244E-07 0.244E-07 0.219E-07   -.146E-14 -.872E-15 0.293E-15   0.694E-17 -.278E-16 0.000E+00   -.112E-14 -.458E-14 -.138E-13
   -.244E-07 -.244E-07 -.219E-07   0.141E-14 0.896E-15 -.255E-15   0.694E-17 0.139E-16 0.000E+00   0.122E-13 0.799E-14 0.537E-15
 -----------------------------------------------------------------------------------------------
   0.116E-12 0.390E-13 0.956E-14   -.517E-16 0.239E-16 0.378E-16   0.139E-16 -.139E-16 0.000E+00   0.111E-13 0.341E-14 -.133E-13
 
 
 POSITION                                       TOTAL-FORCE (eV/Angst)
 -----------------------------------------------------------------------------------
      0.00000      0.00000      0.00000        -0.000000     -0.000000     -0.000000
      1.99186      1.99186      1.99186         0.000000      0.000000      0.000000
 -----------------------------------------------------------------------------------
    total drift:                                0.000000      0.000000     -0.000000


--------------------------------------------------------------------------------------------------------



  FREE ENERGIE OF THE ION-ELECTRON SYSTEM (eV)
  ---------------------------------------------------
  free  energy   TOTEN  =        -5.37727104 eV

  energy  without entropy=       -5.37375770  energy(sigma->0) =       -5.37551437
 


--------------------------------------------------------------------------------------------------------


    POTLOK:  cpu time    0.06: real time    0.06


--------------------------------------------------------------------------------------------------------


 writing wavefunctions
     LOOP+:  cpu time   23.81: real time   25.35
    4ORBIT:  cpu time    0.00: real time    0.00

 total amount of memory used by VASP on root node    69618. kBytes
========================================================================

   base      :      30000. kBytes
   nonl-proj :      19859. kBytes
   fftplans  :       3408. kBytes
   grid      :       6448. kBytes
   one-center:          6. kBytes
   wavefun   :       9897. kBytes
 
  
  
 General timing and accounting informations for this job:
 ========================================================
  
                  Total CPU time used (sec):       24.736
                            User time (sec):       24.108
                          System time (sec):        0.628
                         Elapsed time (sec):       26.551
  
                   Maximum memory used (kb):       86940.
                   Average memory used (kb):           0.
  
                          Minor page faults:        31968
                          Major page faults:            5
                 Voluntary context switches:          676
