 vasp.5.3.5 31Mar14 (build Jun 01 2017 17:55:53) complex                        
  
 executed on             LinuxIFC date 2020.11.10  15:21:10
 running on    4 total cores
 distrk:  each k-point on    4 cores,    1 groups
 distr:  one band on NCORES_PER_BAND=   1 cores,    4 groups


--------------------------------------------------------------------------------------------------------


 INCAR:
 POTCAR:   PAW_PBE Si 05Jan2001                   
 POTCAR:   PAW_PBE Si 05Jan2001                   
   VRHFIN =Si: s2p2                                                             
   LEXCH  = PE                                                                  
   EATOM  =   103.0669 eV,    7.5752 Ry                                         
                                                                                
   TITEL  = PAW_PBE Si 05Jan2001                                                
   LULTRA =        F    use ultrasoft PP ?                                      
   IUNSCR =        1    unscreen: 0-lin 1-nonlin 2-no                           
   RPACOR =    1.500    partial core radius                                     
   POMASS =   28.085; ZVAL   =    4.000    mass and valenz                      
   RCORE  =    1.900    outmost cutoff radius                                   
   RWIGS  =    2.480; RWIGS  =    1.312    wigner-seitz radius (au A)           
   ENMAX  =  245.345; ENMIN  =  184.009 eV                                      
   ICORE  =        2    local potential                                         
   LCOR   =        T    correct aug charges                                     
   LPAW   =        T    paw PP                                                  
   EAUG   =  322.069                                                            
   DEXC   =    -.007                                                            
   RMAX   =    2.944    core radius for proj-oper                               
   RAUG   =    1.300    factor for augmentation sphere                          
   RDEP   =    1.993    radius for radial grids                                 
   QCUT   =   -4.246; QGAM   =    8.493    optimization parameters              
                                                                                
   Description                                                                  
     l     E      TYP  RCUT    TYP  RCUT                                        
     0   .000     23  1.900                                                     
     0   .000     23  1.900                                                     
     1   .000     23  1.900                                                     
     1   .000     23  1.900                                                     
     2   .000      7  1.900                                                     
  local pseudopotential read in
  partial core-charges read in
  atomic valenz-charges read in
  non local Contribution for L=           0  read in
    real space projection operators read in
  non local Contribution for L=           0  read in
    real space projection operators read in
  non local Contribution for L=           1  read in
    real space projection operators read in
  non local Contribution for L=           1  read in
    real space projection operators read in
    PAW grid and wavefunctions read in
 
   number of l-projection  operators is LMAX  =           4
   number of lm-projection operators is LMMAX =           8
 
 PAW_PBE Si 05Jan2001                   :
 energy of atom  1       EATOM= -103.0669
 kinetic energy error for atom=    0.0003 (will be added to EATOM!!)
 
 
 POSCAR: Si
  positions in direct lattice
  velocities in cartesian coordinates
  No initial velocities read in
 exchange correlation table for  LEXCH =        8
   RHO(1)=    0.500       N(1)  =     2000
   RHO(2)=  100.500       N(2)  =     4000
 


--------------------------------------------------------------------------------------------------------


 ion  position               nearest neighbor table
   1  0.000  0.000  0.000-
   2  0.250  0.250  0.250-
 
  LATTYP: Found a face centered cubic cell.
 ALAT       =     7.5055534995
  
  Lattice vectors:
  
 A1 = (   0.0000000000,   3.7527767497,   3.7527767497)
 A2 = (   3.7527767497,   0.0000000000,   3.7527767497)
 A3 = (   3.7527767497,   3.7527767497,   0.0000000000)


Analysis of symmetry for initial positions (statically):
=====================================================================
 Subroutine PRICEL returns:
 Original cell was already a primitive cell.
 

 Routine SETGRP: Setting up the symmetry group for a 
 face centered cubic supercell.


 Subroutine GETGRP returns: Found 48 space group operations
 (whereof 24 operations were pure point group operations)
 out of a pool of 48 trial point group operations.


The static configuration has the point symmetry T_d .
 The point group associated with its full space group is O_h .


Analysis of symmetry for dynamics (positions and initial velocities):
=====================================================================
 Subroutine PRICEL returns:
 Original cell was already a primitive cell.
 

 Routine SETGRP: Setting up the symmetry group for a 
 face centered cubic supercell.


 Subroutine GETGRP returns: Found 48 space group operations
 (whereof 24 operations were pure point group operations)
 out of a pool of 48 trial point group operations.


The dynamic configuration has the point symmetry T_d .
 The point group associated with its full space group is O_h .


Analysis of constrained symmetry for selective dynamics:
=====================================================================
 Subroutine PRICEL returns:
 Original cell was already a primitive cell.
 

 Routine SETGRP: Setting up the symmetry group for a 
 face centered cubic supercell.


 Subroutine GETGRP returns: Found 48 space group operations
 (whereof 24 operations were pure point group operations)
 out of a pool of 48 trial point group operations.


The constrained configuration has the point symmetry T_d .
 The point group associated with its full space group is O_h .
 
 
 KPOINTS: Gamma centered Monkhorst-Pack           

Automatic generation of k-mesh.
Space group operators:
 irot       det(A)        alpha          n_x          n_y          n_z        tau_x        tau_y        tau_z
    1     1.000000     0.000000     1.000000     0.000000     0.000000     0.000000     0.000000     0.000000
    2     1.000000   120.000000    -0.577350    -0.577350    -0.577350     0.000000     0.000000     0.000000
    3     1.000000   120.000000     0.577350     0.577350     0.577350     0.000000     0.000000     0.000000
    4    -1.000000    90.000000     0.000000     0.000000    -1.000000     0.000000     0.000000     0.000000
    5    -1.000000   180.000000     0.000000     0.707107     0.707107     0.000000     0.000000     0.000000
    6    -1.000000    90.000000     0.000000     1.000000     0.000000     0.000000     0.000000     0.000000
    7     1.000000   180.000000     0.000000     0.000000     1.000000     0.000000     0.000000     0.000000
    8     1.000000   120.000000    -0.577350     0.577350     0.577350     0.000000     0.000000     0.000000
    9     1.000000   120.000000    -0.577350     0.577350    -0.577350     0.000000     0.000000     0.000000
   10    -1.000000    90.000000     0.000000     0.000000     1.000000     0.000000     0.000000     0.000000
   11    -1.000000    90.000000    -1.000000     0.000000     0.000000     0.000000     0.000000     0.000000
   12    -1.000000   180.000000     0.707107     0.000000     0.707107     0.000000     0.000000     0.000000
   13     1.000000   120.000000     0.577350    -0.577350     0.577350     0.000000     0.000000     0.000000
   14     1.000000   120.000000    -0.577350    -0.577350     0.577350     0.000000     0.000000     0.000000
   15     1.000000   180.000000     1.000000     0.000000     0.000000     0.000000     0.000000     0.000000
   16    -1.000000    90.000000     0.000000    -1.000000     0.000000     0.000000     0.000000     0.000000
   17    -1.000000   180.000000     0.707107     0.707107     0.000000     0.000000     0.000000     0.000000
   18    -1.000000    90.000000     1.000000     0.000000     0.000000     0.000000     0.000000     0.000000
   19     1.000000   120.000000     0.577350    -0.577350    -0.577350     0.000000     0.000000     0.000000
   20     1.000000   180.000000     0.000000     1.000000     0.000000     0.000000     0.000000     0.000000
   21     1.000000   120.000000     0.577350     0.577350    -0.577350     0.000000     0.000000     0.000000
   22    -1.000000   180.000000     0.000000    -0.707107     0.707107     0.000000     0.000000     0.000000
   23    -1.000000   180.000000     0.707107    -0.707107     0.000000     0.000000     0.000000     0.000000
   24    -1.000000   180.000000     0.707107     0.000000    -0.707107     0.000000     0.000000     0.000000
   25    -1.000000     0.000000     1.000000     0.000000     0.000000     0.250000     0.250000     0.250000
   26    -1.000000   120.000000    -0.577350    -0.577350    -0.577350     0.250000     0.250000     0.250000
   27    -1.000000   120.000000     0.577350     0.577350     0.577350     0.250000     0.250000     0.250000
   28     1.000000    90.000000     0.000000     0.000000    -1.000000     0.250000     0.250000     0.250000
   29     1.000000   180.000000     0.000000     0.707107     0.707107     0.250000     0.250000     0.250000
   30     1.000000    90.000000     0.000000     1.000000     0.000000     0.250000     0.250000     0.250000
   31    -1.000000   180.000000     0.000000     0.000000     1.000000     0.250000     0.250000     0.250000
   32    -1.000000   120.000000    -0.577350     0.577350     0.577350     0.250000     0.250000     0.250000
   33    -1.000000   120.000000    -0.577350     0.577350    -0.577350     0.250000     0.250000     0.250000
   34     1.000000    90.000000     0.000000     0.000000     1.000000     0.250000     0.250000     0.250000
   35     1.000000    90.000000    -1.000000     0.000000     0.000000     0.250000     0.250000     0.250000
   36     1.000000   180.000000     0.707107     0.000000     0.707107     0.250000     0.250000     0.250000
   37    -1.000000   120.000000     0.577350    -0.577350     0.577350     0.250000     0.250000     0.250000
   38    -1.000000   120.000000    -0.577350    -0.577350     0.577350     0.250000     0.250000     0.250000
   39    -1.000000   180.000000     1.000000     0.000000     0.000000     0.250000     0.250000     0.250000
   40     1.000000    90.000000     0.000000    -1.000000     0.000000     0.250000     0.250000     0.250000
   41     1.000000   180.000000     0.707107     0.707107     0.000000     0.250000     0.250000     0.250000
   42     1.000000    90.000000     1.000000     0.000000     0.000000     0.250000     0.250000     0.250000
   43    -1.000000   120.000000     0.577350    -0.577350    -0.577350     0.250000     0.250000     0.250000
   44    -1.000000   180.000000     0.000000     1.000000     0.000000     0.250000     0.250000     0.250000
   45    -1.000000   120.000000     0.577350     0.577350    -0.577350     0.250000     0.250000     0.250000
   46     1.000000   180.000000     0.000000    -0.707107     0.707107     0.250000     0.250000     0.250000
   47     1.000000   180.000000     0.707107    -0.707107     0.000000     0.250000     0.250000     0.250000
   48     1.000000   180.000000     0.707107     0.000000    -0.707107     0.250000     0.250000     0.250000
 
 Subroutine IBZKPT returns following result:
 ===========================================
 
 Found     72 irreducible k-points:
 
 Following reciprocal coordinates:
            Coordinates               Weight
  0.000000  0.000000  0.000000      1.000000
  0.083333  0.000000  0.000000      8.000000
  0.166667  0.000000  0.000000      8.000000
  0.250000  0.000000  0.000000      8.000000
  0.333333  0.000000  0.000000      8.000000
  0.416667  0.000000  0.000000      8.000000
  0.500000  0.000000  0.000000      4.000000
  0.083333  0.083333  0.000000      6.000000
  0.166667  0.083333  0.000000     24.000000
  0.250000  0.083333  0.000000     24.000000
  0.333333  0.083333  0.000000     24.000000
  0.416667  0.083333  0.000000     24.000000
  0.500000  0.083333  0.000000     24.000000
 -0.416667  0.083333  0.000000     24.000000
 -0.333333  0.083333  0.000000     24.000000
 -0.250000  0.083333  0.000000     24.000000
 -0.166667  0.083333  0.000000     24.000000
 -0.083333  0.083333  0.000000     12.000000
  0.166667  0.166667  0.000000      6.000000
  0.250000  0.166667  0.000000     24.000000
  0.333333  0.166667  0.000000     24.000000
  0.416667  0.166667  0.000000     24.000000
  0.500000  0.166667  0.000000     24.000000
 -0.416667  0.166667  0.000000     24.000000
 -0.333333  0.166667  0.000000     24.000000
 -0.250000  0.166667  0.000000     24.000000
 -0.166667  0.166667  0.000000     12.000000
  0.250000  0.250000  0.000000      6.000000
  0.333333  0.250000  0.000000     24.000000
  0.416667  0.250000  0.000000     24.000000
  0.500000  0.250000  0.000000     24.000000
 -0.416667  0.250000  0.000000     24.000000
 -0.333333  0.250000  0.000000     24.000000
 -0.250000  0.250000  0.000000     12.000000
  0.333333  0.333333  0.000000      6.000000
  0.416667  0.333333  0.000000     24.000000
  0.500000  0.333333  0.000000     24.000000
 -0.416667  0.333333  0.000000     24.000000
 -0.333333  0.333333  0.000000     12.000000
  0.416667  0.416667  0.000000      6.000000
  0.500000  0.416667  0.000000     24.000000
 -0.416667  0.416667  0.000000     12.000000
  0.500000  0.500000  0.000000      3.000000
  0.250000  0.166667  0.083333     24.000000
  0.333333  0.166667  0.083333     48.000000
  0.416667  0.166667  0.083333     48.000000
  0.500000  0.166667  0.083333     48.000000
 -0.416667  0.166667  0.083333     24.000000
  0.333333  0.250000  0.083333     24.000000
  0.416667  0.250000  0.083333     48.000000
  0.500000  0.250000  0.083333     48.000000
 -0.416667  0.250000  0.083333     48.000000
 -0.333333  0.250000  0.083333     48.000000
 -0.250000  0.250000  0.083333     48.000000
 -0.166667  0.250000  0.083333     24.000000
  0.416667  0.333333  0.083333     24.000000
  0.500000  0.333333  0.083333     48.000000
 -0.416667  0.333333  0.083333     48.000000
 -0.333333  0.333333  0.083333     48.000000
 -0.250000  0.333333  0.083333     24.000000
  0.500000  0.416667  0.083333     24.000000
 -0.416667  0.416667  0.083333     48.000000
 -0.333333  0.416667  0.083333     24.000000
 -0.416667  0.500000  0.083333     12.000000
  0.500000  0.333333  0.166667     24.000000
 -0.416667  0.333333  0.166667     48.000000
 -0.333333  0.333333  0.166667     24.000000
 -0.416667  0.416667  0.166667     24.000000
 -0.333333  0.416667  0.166667     48.000000
 -0.250000  0.416667  0.166667     24.000000
 -0.333333  0.500000  0.166667     12.000000
 -0.250000  0.500000  0.250000      6.000000
 
 Following cartesian coordinates:
            Coordinates               Weight
  0.000000  0.000000  0.000000      1.000000
 -0.083333  0.083333  0.083333      8.000000
 -0.166667  0.166667  0.166667      8.000000
 -0.250000  0.250000  0.250000      8.000000
 -0.333333  0.333333  0.333333      8.000000
 -0.416667  0.416667  0.416667      8.000000
 -0.500000  0.500000  0.500000      4.000000
  0.000000  0.000000  0.166667      6.000000
 -0.083333  0.083333  0.250000     24.000000
 -0.166667  0.166667  0.333333     24.000000
 -0.250000  0.250000  0.416667     24.000000
 -0.333333  0.333333  0.500000     24.000000
 -0.416667  0.416667  0.583333     24.000000
  0.500000 -0.500000 -0.333333     24.000000
  0.416667 -0.416667 -0.250000     24.000000
  0.333333 -0.333333 -0.166667     24.000000
  0.250000 -0.250000 -0.083333     24.000000
  0.166667 -0.166667  0.000000     12.000000
  0.000000  0.000000  0.333333      6.000000
 -0.083333  0.083333  0.416667     24.000000
 -0.166667  0.166667  0.500000     24.000000
 -0.250000  0.250000  0.583333     24.000000
 -0.333333  0.333333  0.666667     24.000000
  0.583333 -0.583333 -0.250000     24.000000
  0.500000 -0.500000 -0.166667     24.000000
  0.416667 -0.416667 -0.083333     24.000000
  0.333333 -0.333333  0.000000     12.000000
  0.000000  0.000000  0.500000      6.000000
 -0.083333  0.083333  0.583333     24.000000
 -0.166667  0.166667  0.666667     24.000000
 -0.250000  0.250000  0.750000     24.000000
  0.666667 -0.666667 -0.166667     24.000000
  0.583333 -0.583333 -0.083333     24.000000
  0.500000 -0.500000  0.000000     12.000000
  0.000000  0.000000  0.666667      6.000000
 -0.083333  0.083333  0.750000     24.000000
 -0.166667  0.166667  0.833333     24.000000
  0.750000 -0.750000 -0.083333     24.000000
  0.666667 -0.666667  0.000000     12.000000
  0.000000  0.000000  0.833333      6.000000
 -0.083333  0.083333  0.916667     24.000000
  0.833333 -0.833333  0.000000     12.000000
  0.000000  0.000000  1.000000      3.000000
  0.000000  0.166667  0.333333     24.000000
 -0.083333  0.250000  0.416667     48.000000
 -0.166667  0.333333  0.500000     48.000000
 -0.250000  0.416667  0.583333     48.000000
  0.666667 -0.500000 -0.333333     24.000000
  0.000000  0.166667  0.500000     24.000000
 -0.083333  0.250000  0.583333     48.000000
 -0.166667  0.333333  0.666667     48.000000
  0.750000 -0.583333 -0.250000     48.000000
  0.666667 -0.500000 -0.166667     48.000000
  0.583333 -0.416667 -0.083333     48.000000
  0.500000 -0.333333  0.000000     24.000000
 -0.000000  0.166667  0.666667     24.000000
 -0.083333  0.250000  0.750000     48.000000
  0.833333 -0.666667 -0.166667     48.000000
  0.750000 -0.583333 -0.083333     48.000000
  0.666667 -0.500000 -0.000000     24.000000
  0.000000  0.166667  0.833333     24.000000
  0.916667 -0.750000 -0.083333     48.000000
  0.833333 -0.666667  0.000000     24.000000
  1.000000 -0.833333  0.000000     12.000000
  0.000000  0.333333  0.666667     24.000000
  0.916667 -0.583333 -0.250000     48.000000
  0.833333 -0.500000 -0.166667     24.000000
  1.000000 -0.666667 -0.166667     24.000000
  0.916667 -0.583333 -0.083333     48.000000
  0.833333 -0.500000  0.000000     24.000000
  1.000000 -0.666667  0.000000     12.000000
  1.000000 -0.500000  0.000000      6.000000
 


--------------------------------------------------------------------------------------------------------




 Dimension of arrays:
   k-points           NKPTS =     72   k-points in BZ     NKDIM =     72   number of bands    NBANDS=      8
   number of dos      NEDOS =    301   number of ions     NIONS =      2
   non local maximal  LDIM  =      4   non local SUM 2l+1 LMDIM =      8
   total plane-waves  NPLWV =  32768
   max r-space proj   IRMAX =      1   max aug-charges    IRDMAX=  10563
   dimension x,y,z NGX =    32 NGY =   32 NGZ =   32
   dimension x,y,z NGXF=    64 NGYF=   64 NGZF=   64
   support grid    NGXF=    64 NGYF=   64 NGZF=   64
   ions per type =               2
 NGX,Y,Z   is equivalent  to a cutoff of  10.02, 10.02, 10.02 a.u.
 NGXF,Y,Z  is equivalent  to a cutoff of  20.05, 20.05, 20.05 a.u.


 I would recommend the setting:
   dimension x,y,z NGX =    32 NGY =   32 NGZ =   32
 SYSTEM =  Si
 POSCAR =  Si

 Startparameter for this run:
   NWRITE =      2    write-flag & timer
   PREC   = normal    normal or accurate (medium, high low for compatibility)
   ISTART =      0    job   : 0-new  1-cont  2-samecut
   ICHARG =      2    charge: 1-file 2-atom 10-const
   ISPIN  =      1    spin polarized calculation?
   LNONCOLLINEAR =      F non collinear calculations
   LSORBIT =      F    spin-orbit coupling
   INIWAV =      1    electr: 0-lowe 1-rand  2-diag
   LASPH  =      F    aspherical Exc in radial PAW
   METAGGA=      F    non-selfconsistent MetaGGA calc.

 Electronic Relaxation 1
   ENCUT  =  600.0 eV  44.10 Ry    6.64 a.u.  10.60 10.60 10.60*2*pi/ulx,y,z
   ENINI  =  600.0     initial cutoff
   ENAUG  = 1200.0 eV  augmentation charge cutoff
   NELM   =    500;   NELMIN=  2; NELMDL= -5     # of ELM steps 
   EDIFF  = 0.1E-09   stopping-criterion for ELM
   LREAL  =      F    real-space projection
   NLSPLINE    = F    spline interpolate recip. space projectors
   LCOMPAT=      F    compatible to vasp.4.4
   GGA_COMPAT  = T    GGA compatible to vasp.4.4-vasp.4.6
   LMAXPAW     = -100 max onsite density
   LMAXMIX     =    2 max onsite mixed and CHGCAR
   VOSKOWN=      0    Vosko Wilk Nusair interpolation
   ROPT   =    0.00000
 Ionic relaxation
   EDIFFG = 0.1E-08   stopping-criterion for IOM
   NSW    =      0    number of steps for IOM
   NBLOCK =      1;   KBLOCK =      1    inner block; outer block 
   IBRION =     -1    ionic relax: 0-MD 1-quasi-New 2-CG
   NFREE  =      0    steps in history (QN), initial steepest desc. (CG)
   ISIF   =      2    stress and relaxation
   IWAVPR =     10    prediction:  0-non 1-charg 2-wave 3-comb
   ISYM   =      2    0-nonsym 1-usesym 2-fastsym
   LCORR  =      T    Harris-Foulkes like correction to forces

   POTIM  = 0.5000    time-step for ionic-motion
   TEIN   =    0.0    initial temperature
   TEBEG  =    0.0;   TEEND  =   0.0 temperature during run
   SMASS  =  -3.00    Nose mass-parameter (am)
   estimated Nose-frequenzy (Omega)   =  0.10E-29 period in steps =****** mass=  -0.644E-27a.u.
   SCALEE = 1.0000    scale energy and forces
   NPACO  =    256;   APACO  = 16.0  distance and # of slots for P.C.
   PSTRESS=    0.0 pullay stress

  Mass of Ions in am
   POMASS =  28.09
  Ionic Valenz
   ZVAL   =   4.00
  Atomic Wigner-Seitz radii
   RWIGS  =  -1.00
  virtual crystal weights 
   VCA    =   1.00
   NELECT =       8.0000    total number of electrons
   NUPDOWN=      -1.0000    fix difference up-down

 DOS related values:
   EMIN   =  10.00;   EMAX   =-10.00  energy-range for DOS
   EFERMI =   0.00
   ISMEAR =    -1;   SIGMA  =   0.03  broadening in eV -4-tet -1-fermi 0-gaus

 Electronic relaxation 2 (details)
   IALGO  =     38    algorithm
   LDIAG  =      T    sub-space diagonalisation (order eigenvalues)
   LSUBROT=      F    optimize rotation matrix (better conditioning)
   TURBO    =      0    0=normal 1=particle mesh
   IRESTART =      0    0=no restart 2=restart with 2 vectors
   NREBOOT  =      0    no. of reboots
   NMIN     =      0    reboot dimension
   EREF     =   0.00    reference energy to select bands
   IMIX   =      4    mixing-type and parameters
     AMIX     =   0.40;   BMIX     =  1.00
     AMIX_MAG =   1.60;   BMIX_MAG =  1.00
     AMIN     =   0.10
     WC   =   100.;   INIMIX=   1;  MIXPRE=   1;  MAXMIX= -45

 Intra band minimization:
   WEIMIN = 0.0000     energy-eigenvalue tresh-hold
   EBREAK =  0.31E-11  absolut break condition
   DEPER  =   0.30     relativ break condition  

   TIME   =   0.40     timestep for ELM

  volume/ion in A,a.u.               =      52.85       356.66
  Fermi-wavevector in a.u.,A,eV,Ry     =   0.692482  1.308602  6.524428  0.479532
  Thomas-Fermi vector in A             =   1.774428
 
 Write flags
   LWAVE  =      T    write WAVECAR
   LCHARG =      T    write CHGCAR
   LVTOT  =      F    write LOCPOT, total local potential
   LVHAR  =      F    write LOCPOT, Hartree potential only
   LELF   =      F    write electronic localiz. function (ELF)
   LORBIT =      0    0 simple, 1 ext, 2 COOP (PROOUT)


 Dipole corrections
   LMONO  =      F    monopole corrections only (constant potential shift)
   LDIPOL =      F    correct potential (dipole corrections)
   IDIPOL =      0    1-x, 2-y, 3-z, 4-all directions 
   EPSILON=  1.0000000 bulk dielectric constant

 Exchange correlation treatment:
   GGA     =    PE    GGA type
   LEXCH   =     8    internal setting for exchange type
   VOSKOWN=      0    Vosko Wilk Nusair interpolation
   LHFCALC =     F    Hartree Fock is set to
   LHFONE  =     F    Hartree Fock one center treatment
   AEXX    =    0.0000 exact exchange contribution

 Linear response parameters
   LEPSILON=     F    determine dielectric tensor
   LRPA    =     F    only Hartree local field effects (RPA)
   LNABLA  =     F    use nabla operator in PAW spheres
   LVEL    =     F    velocity operator in full k-point grid
   LINTERFAST=   F  fast interpolation
   KINTER  =     0    interpolate to denser k-point grid
   CSHIFT  =0.1000    complex shift for real part using Kramers Kronig
   OMEGAMAX=  -1.0    maximum frequency
   DEG_THRESHOLD= 0.2000000E-02 threshold for treating states as degnerate
   RTIME   =    0.100 relaxation time in fs

 Orbital magnetization related:
   ORBITALMAG=     F  switch on orbital magnetization
   LCHIMAG   =     F  perturbation theory with respect to B field
   DQ        =  0.001000  dq finite difference perturbation B field



--------------------------------------------------------------------------------------------------------


 Static calculation
 charge density and potential will be updated during run
 non-spin polarized calculation
 Variant of blocked Davidson
 Davidson routine will perform the subspace rotation
 perform sub-space diagonalisation
    after iterative eigenvector-optimisation
 modified Broyden-mixing scheme, WC =      100.0
 initial mixing is a Kerker type mixing with AMIX =  0.4000 and BMIX =      1.0000
 Hartree-type preconditioning will be used
 using additional bands            4
 reciprocal scheme for non local part
 use partial core corrections
 calculate Harris-corrections to forces 
   (improved forces if not selfconsistent)
 use gradient corrections 
 use of overlap-Matrix (Vanderbilt PP)
 Fermi-smearing in eV        SIGMA  =   0.03


--------------------------------------------------------------------------------------------------------


  energy-cutoff  :      600.00
  volume of cell :      105.70
      direct lattice vectors                 reciprocal lattice vectors
     0.000000000  3.752776750  3.752776750    -0.133234678  0.133234678  0.133234678
     3.752776750  0.000000000  3.752776750     0.133234678 -0.133234678  0.133234678
     3.752776750  3.752776750  0.000000000     0.133234678  0.133234678 -0.133234678

  length of vectors
     5.307227776  5.307227776  5.307227776     0.230769231  0.230769231  0.230769231


 
 k-points in units of 2pi/SCALE and weight: Gamma centered Monkhorst-Pack           
   0.00000000  0.00000000  0.00000000       0.001
  -0.08333333  0.08333333  0.08333333       0.005
  -0.16666667  0.16666667  0.16666667       0.005
  -0.25000000  0.25000000  0.25000000       0.005
  -0.33333333  0.33333333  0.33333333       0.005
  -0.41666667  0.41666667  0.41666667       0.005
  -0.50000000  0.50000000  0.50000000       0.002
   0.00000000  0.00000000  0.16666667       0.003
  -0.08333333  0.08333333  0.25000000       0.014
  -0.16666667  0.16666667  0.33333333       0.014
  -0.25000000  0.25000000  0.41666667       0.014
  -0.33333333  0.33333333  0.50000000       0.014
  -0.41666667  0.41666667  0.58333333       0.014
   0.50000000 -0.50000000 -0.33333333       0.014
   0.41666667 -0.41666667 -0.25000000       0.014
   0.33333333 -0.33333333 -0.16666667       0.014
   0.25000000 -0.25000000 -0.08333333       0.014
   0.16666667 -0.16666667  0.00000000       0.007
   0.00000000  0.00000000  0.33333333       0.003
  -0.08333333  0.08333333  0.41666667       0.014
  -0.16666667  0.16666667  0.50000000       0.014
  -0.25000000  0.25000000  0.58333333       0.014
  -0.33333333  0.33333333  0.66666667       0.014
   0.58333333 -0.58333333 -0.25000000       0.014
   0.50000000 -0.50000000 -0.16666667       0.014
   0.41666667 -0.41666667 -0.08333333       0.014
   0.33333333 -0.33333333  0.00000000       0.007
   0.00000000  0.00000000  0.50000000       0.003
  -0.08333333  0.08333333  0.58333333       0.014
  -0.16666667  0.16666667  0.66666667       0.014
  -0.25000000  0.25000000  0.75000000       0.014
   0.66666667 -0.66666667 -0.16666667       0.014
   0.58333333 -0.58333333 -0.08333333       0.014
   0.50000000 -0.50000000  0.00000000       0.007
   0.00000000  0.00000000  0.66666667       0.003
  -0.08333333  0.08333333  0.75000000       0.014
  -0.16666667  0.16666667  0.83333333       0.014
   0.75000000 -0.75000000 -0.08333333       0.014
   0.66666667 -0.66666667  0.00000000       0.007
   0.00000000  0.00000000  0.83333333       0.003
  -0.08333333  0.08333333  0.91666667       0.014
   0.83333333 -0.83333333  0.00000000       0.007
   0.00000000  0.00000000  1.00000000       0.002
   0.00000000  0.16666667  0.33333333       0.014
  -0.08333333  0.25000000  0.41666667       0.028
  -0.16666667  0.33333333  0.50000000       0.028
  -0.25000000  0.41666667  0.58333333       0.028
   0.66666667 -0.50000000 -0.33333333       0.014
   0.00000000  0.16666667  0.50000000       0.014
  -0.08333333  0.25000000  0.58333333       0.028
  -0.16666667  0.33333333  0.66666667       0.028
   0.75000000 -0.58333333 -0.25000000       0.028
   0.66666667 -0.50000000 -0.16666667       0.028
   0.58333333 -0.41666667 -0.08333333       0.028
   0.50000000 -0.33333333  0.00000000       0.014
  -0.00000000  0.16666667  0.66666667       0.014
  -0.08333333  0.25000000  0.75000000       0.028
   0.83333333 -0.66666667 -0.16666667       0.028
   0.75000000 -0.58333333 -0.08333333       0.028
   0.66666667 -0.50000000 -0.00000000       0.014
   0.00000000  0.16666667  0.83333333       0.014
   0.91666667 -0.75000000 -0.08333333       0.028
   0.83333333 -0.66666667  0.00000000       0.014
   1.00000000 -0.83333333  0.00000000       0.007
   0.00000000  0.33333333  0.66666667       0.014
   0.91666667 -0.58333333 -0.25000000       0.028
   0.83333333 -0.50000000 -0.16666667       0.014
   1.00000000 -0.66666667 -0.16666667       0.014
   0.91666667 -0.58333333 -0.08333333       0.028
   0.83333333 -0.50000000  0.00000000       0.014
   1.00000000 -0.66666667  0.00000000       0.007
   1.00000000 -0.50000000  0.00000000       0.003
 
 k-points in reciprocal lattice and weights: Gamma centered Monkhorst-Pack           
   0.00000000  0.00000000  0.00000000       0.001
   0.08333333  0.00000000  0.00000000       0.005
   0.16666667  0.00000000  0.00000000       0.005
   0.25000000  0.00000000  0.00000000       0.005
   0.33333333  0.00000000  0.00000000       0.005
   0.41666667  0.00000000  0.00000000       0.005
   0.50000000  0.00000000  0.00000000       0.002
   0.08333333  0.08333333  0.00000000       0.003
   0.16666667  0.08333333  0.00000000       0.014
   0.25000000  0.08333333  0.00000000       0.014
   0.33333333  0.08333333  0.00000000       0.014
   0.41666667  0.08333333  0.00000000       0.014
   0.50000000  0.08333333  0.00000000       0.014
  -0.41666667  0.08333333  0.00000000       0.014
  -0.33333333  0.08333333  0.00000000       0.014
  -0.25000000  0.08333333  0.00000000       0.014
  -0.16666667  0.08333333  0.00000000       0.014
  -0.08333333  0.08333333  0.00000000       0.007
   0.16666667  0.16666667  0.00000000       0.003
   0.25000000  0.16666667  0.00000000       0.014
   0.33333333  0.16666667  0.00000000       0.014
   0.41666667  0.16666667  0.00000000       0.014
   0.50000000  0.16666667  0.00000000       0.014
  -0.41666667  0.16666667  0.00000000       0.014
  -0.33333333  0.16666667  0.00000000       0.014
  -0.25000000  0.16666667  0.00000000       0.014
  -0.16666667  0.16666667  0.00000000       0.007
   0.25000000  0.25000000  0.00000000       0.003
   0.33333333  0.25000000  0.00000000       0.014
   0.41666667  0.25000000  0.00000000       0.014
   0.50000000  0.25000000  0.00000000       0.014
  -0.41666667  0.25000000  0.00000000       0.014
  -0.33333333  0.25000000  0.00000000       0.014
  -0.25000000  0.25000000  0.00000000       0.007
   0.33333333  0.33333333  0.00000000       0.003
   0.41666667  0.33333333  0.00000000       0.014
   0.50000000  0.33333333  0.00000000       0.014
  -0.41666667  0.33333333  0.00000000       0.014
  -0.33333333  0.33333333  0.00000000       0.007
   0.41666667  0.41666667  0.00000000       0.003
   0.50000000  0.41666667  0.00000000       0.014
  -0.41666667  0.41666667  0.00000000       0.007
   0.50000000  0.50000000  0.00000000       0.002
   0.25000000  0.16666667  0.08333333       0.014
   0.33333333  0.16666667  0.08333333       0.028
   0.41666667  0.16666667  0.08333333       0.028
   0.50000000  0.16666667  0.08333333       0.028
  -0.41666667  0.16666667  0.08333333       0.014
   0.33333333  0.25000000  0.08333333       0.014
   0.41666667  0.25000000  0.08333333       0.028
   0.50000000  0.25000000  0.08333333       0.028
  -0.41666667  0.25000000  0.08333333       0.028
  -0.33333333  0.25000000  0.08333333       0.028
  -0.25000000  0.25000000  0.08333333       0.028
  -0.16666667  0.25000000  0.08333333       0.014
   0.41666667  0.33333333  0.08333333       0.014
   0.50000000  0.33333333  0.08333333       0.028
  -0.41666667  0.33333333  0.08333333       0.028
  -0.33333333  0.33333333  0.08333333       0.028
  -0.25000000  0.33333333  0.08333333       0.014
   0.50000000  0.41666667  0.08333333       0.014
  -0.41666667  0.41666667  0.08333333       0.028
  -0.33333333  0.41666667  0.08333333       0.014
  -0.41666667  0.50000000  0.08333333       0.007
   0.50000000  0.33333333  0.16666667       0.014
  -0.41666667  0.33333333  0.16666667       0.028
  -0.33333333  0.33333333  0.16666667       0.014
  -0.41666667  0.41666667  0.16666667       0.014
  -0.33333333  0.41666667  0.16666667       0.028
  -0.25000000  0.41666667  0.16666667       0.014
  -0.33333333  0.50000000  0.16666667       0.007
  -0.25000000  0.50000000  0.25000000       0.003
 
 position of ions in fractional coordinates (direct lattice) 
   0.00000000  0.00000000  0.00000000
   0.25000000  0.25000000  0.25000000
 
 position of ions in cartesian coordinates  (Angst):
   0.00000000  0.00000000  0.00000000
   1.87638837  1.87638837  1.87638837
 


--------------------------------------------------------------------------------------------------------


 k-point  1 :   0.0000 0.0000 0.0000  plane waves:    3527
 k-point  2 :   0.0833 0.0000 0.0000  plane waves:    3548
 k-point  3 :   0.1667 0.0000 0.0000  plane waves:    3545
 k-point  4 :   0.2500 0.0000 0.0000  plane waves:    3548
 k-point  5 :   0.3333 0.0000 0.0000  plane waves:    3548
 k-point  6 :   0.4167 0.0000 0.0000  plane waves:    3528
 k-point  7 :   0.5000 0.0000 0.0000  plane waves:    3498
 k-point  8 :   0.0833 0.0833 0.0000  plane waves:    3547
 k-point  9 :   0.1667 0.0833 0.0000  plane waves:    3552
 k-point 10 :   0.2500 0.0833 0.0000  plane waves:    3542
 k-point 11 :   0.3333 0.0833 0.0000  plane waves:    3527
 k-point 12 :   0.4167 0.0833 0.0000  plane waves:    3534
 k-point 13 :   0.5000 0.0833 0.0000  plane waves:    3531
 k-point 14 :  -0.4167 0.0833 0.0000  plane waves:    3536
 k-point 15 :  -0.3333 0.0833 0.0000  plane waves:    3523
 k-point 16 :  -0.2500 0.0833 0.0000  plane waves:    3534
 k-point 17 :  -0.1667 0.0833 0.0000  plane waves:    3539
 k-point 18 :  -0.0833 0.0833 0.0000  plane waves:    3537
 k-point 19 :   0.1667 0.1667 0.0000  plane waves:    3543
 k-point 20 :   0.2500 0.1667 0.0000  plane waves:    3550
 k-point 21 :   0.3333 0.1667 0.0000  plane waves:    3528
 k-point 22 :   0.4167 0.1667 0.0000  plane waves:    3530
 k-point 23 :   0.5000 0.1667 0.0000  plane waves:    3533
 k-point 24 :  -0.4167 0.1667 0.0000  plane waves:    3526
 k-point 25 :  -0.3333 0.1667 0.0000  plane waves:    3537
 k-point 26 :  -0.2500 0.1667 0.0000  plane waves:    3525
 k-point 27 :  -0.1667 0.1667 0.0000  plane waves:    3545
 k-point 28 :   0.2500 0.2500 0.0000  plane waves:    3543
 k-point 29 :   0.3333 0.2500 0.0000  plane waves:    3529
 k-point 30 :   0.4167 0.2500 0.0000  plane waves:    3521
 k-point 31 :   0.5000 0.2500 0.0000  plane waves:    3530
 k-point 32 :  -0.4167 0.2500 0.0000  plane waves:    3533
 k-point 33 :  -0.3333 0.2500 0.0000  plane waves:    3528
 k-point 34 :  -0.2500 0.2500 0.0000  plane waves:    3527
 k-point 35 :   0.3333 0.3333 0.0000  plane waves:    3535
 k-point 36 :   0.4167 0.3333 0.0000  plane waves:    3514
 k-point 37 :   0.5000 0.3333 0.0000  plane waves:    3497
 k-point 38 :  -0.4167 0.3333 0.0000  plane waves:    3519
 k-point 39 :  -0.3333 0.3333 0.0000  plane waves:    3498
 k-point 40 :   0.4167 0.4167 0.0000  plane waves:    3507
 k-point 41 :   0.5000 0.4167 0.0000  plane waves:    3509
 k-point 42 :  -0.4167 0.4167 0.0000  plane waves:    3508
 k-point 43 :   0.5000 0.5000 0.0000  plane waves:    3490
 k-point 44 :   0.2500 0.1667 0.0833  plane waves:    3539
 k-point 45 :   0.3333 0.1667 0.0833  plane waves:    3539
 k-point 46 :   0.4167 0.1667 0.0833  plane waves:    3522
 k-point 47 :   0.5000 0.1667 0.0833  plane waves:    3536
 k-point 48 :  -0.4167 0.1667 0.0833  plane waves:    3532
 k-point 49 :   0.3333 0.2500 0.0833  plane waves:    3536
 k-point 50 :   0.4167 0.2500 0.0833  plane waves:    3524
 k-point 51 :   0.5000 0.2500 0.0833  plane waves:    3531
 k-point 52 :  -0.4167 0.2500 0.0833  plane waves:    3531
 k-point 53 :  -0.3333 0.2500 0.0833  plane waves:    3523
 k-point 54 :  -0.2500 0.2500 0.0833  plane waves:    3530
 k-point 55 :  -0.1667 0.2500 0.0833  plane waves:    3523
 k-point 56 :   0.4167 0.3333 0.0833  plane waves:    3523
 k-point 57 :   0.5000 0.3333 0.0833  plane waves:    3517
 k-point 58 :  -0.4167 0.3333 0.0833  plane waves:    3520
 k-point 59 :  -0.3333 0.3333 0.0833  plane waves:    3537
 k-point 60 :  -0.2500 0.3333 0.0833  plane waves:    3529
 k-point 61 :   0.5000 0.4167 0.0833  plane waves:    3508
 k-point 62 :  -0.4167 0.4167 0.0833  plane waves:    3514
 k-point 63 :  -0.3333 0.4167 0.0833  plane waves:    3527
 k-point 64 :  -0.4167 0.5000 0.0833  plane waves:    3508
 k-point 65 :   0.5000 0.3333 0.1667  plane waves:    3535
 k-point 66 :  -0.4167 0.3333 0.1667  plane waves:    3528
 k-point 67 :  -0.3333 0.3333 0.1667  plane waves:    3534
 k-point 68 :  -0.4167 0.4167 0.1667  plane waves:    3518
 k-point 69 :  -0.3333 0.4167 0.1667  plane waves:    3518
 k-point 70 :  -0.2500 0.4167 0.1667  plane waves:    3525
 k-point 71 :  -0.3333 0.5000 0.1667  plane waves:    3506
 k-point 72 :  -0.2500 0.5000 0.2500  plane waves:    3504

 maximum and minimum number of plane-waves per node :      3552     3490

 maximum number of plane-waves:      3552
 maximum index in each direction: 
   IXMAX=   11   IYMAX=   10   IZMAX=   10
   IXMIN=  -11   IYMIN=  -11   IZMIN=  -10

 WARNING: aliasing errors must be expected set NGX to  46 to avoid them
 WARNING: aliasing errors must be expected set NGY to  44 to avoid them
 WARNING: aliasing errors must be expected set NGZ to  42 to avoid them
 aliasing errors are usually negligible using standard VASP settings
 and one can safely disregard these warnings

 serial   3D FFT for wavefunctions
 parallel 3D FFT for charge:
    minimum data exchange during FFTs selected (reduces bandwidth)


 total amount of memory used by VASP on root node    61646. kBytes
========================================================================

   base      :      30000. kBytes
   nonl-proj :      16481. kBytes
   fftplans  :       2401. kBytes
   grid      :       4538. kBytes
   one-center:          6. kBytes
   wavefun   :       8220. kBytes
 
     INWAV:  cpu time    0.00: real time    0.00
 Broyden mixing: mesh for mixing (old mesh)
   NGX = 21   NGY = 21   NGZ = 21
  (NGX  = 64   NGY  = 64   NGZ  = 64)
  gives a total of   9261 points

 initial charge density was supplied:
 charge density of overlapping atoms calculated
 number of electron       8.0000000 magnetization 
 keeping initial charge density in first step


--------------------------------------------------------------------------------------------------------


 Maximum index for augmentation-charges         2487 (set IRDMAX)


--------------------------------------------------------------------------------------------------------


 First call to EWALD:  gamma=   0.375
 Maximum number of real-space cells 3x 3x 3
 Maximum number of reciprocal cells 3x 3x 3

 FEWALD executed in parallel
    FEWALD:  cpu time    0.00: real time    0.00


----------------------------------------- Iteration    1(   1)  ---------------------------------------


    POTLOK:  cpu time    0.04: real time    0.04
    SETDIJ:  cpu time    0.00: real time    0.00
     EDDAV:  cpu time    0.68: real time    0.68
       DOS:  cpu time    0.00: real time    0.00
    --------------------------------------------
      LOOP:  cpu time    0.72: real time    0.72

 eigenvalue-minimisations  :  1152
 total energy-change (2. order) : 0.1046995E+02  (-0.2673864E+03)
 number of electron       8.0000000 magnetization 
 augmentation part        8.0000000 magnetization 

 Free energy of the ion-electron system (eV)
  ---------------------------------------------------
  alpha Z        PSCENC =         1.27387154
  Ewald energy   TEWEN  =      -165.35755031
  -Hartree energ DENC   =       -29.88983608
  -exchange      EXHF   =         0.00000000
  -V(xc)+E(xc)   XCENC  =       -21.26627307
  PAW double counting   =        65.95520812      -30.76852678
  entropy T*S    EENTRO =        -0.00328637
  eigenvalues    EBANDS =       -15.60677206
  atomic energy  EATOM  =       206.13311910
  ---------------------------------------------------
  free energy    TOTEN  =        10.46995410 eV

  energy without entropy =       10.47324047  energy(sigma->0) =       10.47159728


--------------------------------------------------------------------------------------------------------




----------------------------------------- Iteration    1(   2)  ---------------------------------------


     EDDAV:  cpu time    1.05: real time    1.05
       DOS:  cpu time    0.00: real time    0.00
    --------------------------------------------
      LOOP:  cpu time    1.05: real time    1.05

 eigenvalue-minimisations  :  1976
 total energy-change (2. order) :-0.1632746E+02  (-0.1612053E+02)
 number of electron       8.0000000 magnetization 
 augmentation part        8.0000000 magnetization 

 Free energy of the ion-electron system (eV)
  ---------------------------------------------------
  alpha Z        PSCENC =         1.27387154
  Ewald energy   TEWEN  =      -165.35755031
  -Hartree energ DENC   =       -29.88983608
  -exchange      EXHF   =         0.00000000
  -V(xc)+E(xc)   XCENC  =       -21.26627307
  PAW double counting   =        65.95520812      -30.76852678
  entropy T*S    EENTRO =        -0.00235071
  eigenvalues    EBANDS =       -31.93517066
  atomic energy  EATOM  =       206.13311910
  ---------------------------------------------------
  free energy    TOTEN  =        -5.85750885 eV

  energy without entropy =       -5.85515814  energy(sigma->0) =       -5.85633349


--------------------------------------------------------------------------------------------------------




----------------------------------------- Iteration    1(   3)  ---------------------------------------


     EDDAV:  cpu time    0.80: real time    0.81
       DOS:  cpu time    0.00: real time    0.00
    --------------------------------------------
      LOOP:  cpu time    0.80: real time    0.81

 eigenvalue-minimisations  :  1440
 total energy-change (2. order) :-0.4895612E+00  (-0.4885216E+00)
 number of electron       8.0000000 magnetization 
 augmentation part        8.0000000 magnetization 

 Free energy of the ion-electron system (eV)
  ---------------------------------------------------
  alpha Z        PSCENC =         1.27387154
  Ewald energy   TEWEN  =      -165.35755031
  -Hartree energ DENC   =       -29.88983608
  -exchange      EXHF   =         0.00000000
  -V(xc)+E(xc)   XCENC  =       -21.26627307
  PAW double counting   =        65.95520812      -30.76852678
  entropy T*S    EENTRO =        -0.00182354
  eigenvalues    EBANDS =       -32.42525905
  atomic energy  EATOM  =       206.13311910
  ---------------------------------------------------
  free energy    TOTEN  =        -6.34707007 eV

  energy without entropy =       -6.34524653  energy(sigma->0) =       -6.34615830


--------------------------------------------------------------------------------------------------------




----------------------------------------- Iteration    1(   4)  ---------------------------------------


     EDDAV:  cpu time    0.84: real time    0.85
       DOS:  cpu time    0.00: real time    0.00
    --------------------------------------------
      LOOP:  cpu time    0.84: real time    0.85

 eigenvalue-minimisations  :  1536
 total energy-change (2. order) :-0.4253553E-02  (-0.4253472E-02)
 number of electron       8.0000000 magnetization 
 augmentation part        8.0000000 magnetization 

 Free energy of the ion-electron system (eV)
  ---------------------------------------------------
  alpha Z        PSCENC =         1.27387154
  Ewald energy   TEWEN  =      -165.35755031
  -Hartree energ DENC   =       -29.88983608
  -exchange      EXHF   =         0.00000000
  -V(xc)+E(xc)   XCENC  =       -21.26627307
  PAW double counting   =        65.95520812      -30.76852678
  entropy T*S    EENTRO =        -0.00182224
  eigenvalues    EBANDS =       -32.42951391
  atomic energy  EATOM  =       206.13311910
  ---------------------------------------------------
  free energy    TOTEN  =        -6.35132362 eV

  energy without entropy =       -6.34950138  energy(sigma->0) =       -6.35041250


--------------------------------------------------------------------------------------------------------




----------------------------------------- Iteration    1(   5)  ---------------------------------------


     EDDAV:  cpu time    0.80: real time    0.81
       DOS:  cpu time    0.00: real time    0.00
    CHARGE:  cpu time    0.04: real time    0.04
    MIXING:  cpu time    0.00: real time    0.00
    --------------------------------------------
      LOOP:  cpu time    0.84: real time    0.86

 eigenvalue-minimisations  :  1440
 total energy-change (2. order) :-0.2424251E-04  (-0.2424226E-04)
 number of electron       8.0000003 magnetization 
 augmentation part       -0.5112825 magnetization 

 Broyden mixing:
  rms(total) = 0.12187E+00    rms(broyden)= 0.12187E+00
  rms(prec ) = 0.29346E+00
  weight for this iteration     100.00

 Free energy of the ion-electron system (eV)
  ---------------------------------------------------
  alpha Z        PSCENC =         1.27387154
  Ewald energy   TEWEN  =      -165.35755031
  -Hartree energ DENC   =       -29.88983608
  -exchange      EXHF   =         0.00000000
  -V(xc)+E(xc)   XCENC  =       -21.26627307
  PAW double counting   =        65.95520812      -30.76852678
  entropy T*S    EENTRO =        -0.00182195
  eigenvalues    EBANDS =       -32.42953844
  atomic energy  EATOM  =       206.13311910
  ---------------------------------------------------
  free energy    TOTEN  =        -6.35134786 eV

  energy without entropy =       -6.34952592  energy(sigma->0) =       -6.35043689


--------------------------------------------------------------------------------------------------------




----------------------------------------- Iteration    1(   6)  ---------------------------------------


    POTLOK:  cpu time    0.03: real time    0.04
    SETDIJ:  cpu time    0.00: real time    0.00
     EDDAV:  cpu time    0.74: real time    0.74
       DOS:  cpu time    0.00: real time    0.00
    CHARGE:  cpu time    0.04: real time    0.04
    MIXING:  cpu time    0.00: real time    0.00
    --------------------------------------------
      LOOP:  cpu time    0.82: real time    0.83

 eigenvalue-minimisations  :  1272
 total energy-change (2. order) :-0.5518411E-02  (-0.8925117E-03)
 number of electron       8.0000003 magnetization 
 augmentation part       -0.5148356 magnetization 

 Broyden mixing:
  rms(total) = 0.77673E-01    rms(broyden)= 0.77673E-01
  rms(prec ) = 0.18836E+00
  weight for this iteration     100.00

 eigenvalues of (default mixing * dielectric matrix)
  average eigenvalue GAMMA=   2.7190
  2.7190

 Free energy of the ion-electron system (eV)
  ---------------------------------------------------
  alpha Z        PSCENC =         1.27387154
  Ewald energy   TEWEN  =      -165.35755031
  -Hartree energ DENC   =       -29.67587200
  -exchange      EXHF   =         0.00000000
  -V(xc)+E(xc)   XCENC  =       -21.29081812
  PAW double counting   =        64.78079820      -29.55085069
  entropy T*S    EENTRO =        -0.00176304
  eigenvalues    EBANDS =       -32.66780096
  atomic energy  EATOM  =       206.13311910
  ---------------------------------------------------
  free energy    TOTEN  =        -6.35686627 eV

  energy without entropy =       -6.35510324  energy(sigma->0) =       -6.35598475


--------------------------------------------------------------------------------------------------------




----------------------------------------- Iteration    1(   7)  ---------------------------------------


    POTLOK:  cpu time    0.03: real time    0.04
    SETDIJ:  cpu time    0.00: real time    0.00
     EDDAV:  cpu time    0.79: real time    0.80
       DOS:  cpu time    0.00: real time    0.00
    CHARGE:  cpu time    0.04: real time    0.04
    MIXING:  cpu time    0.00: real time    0.00
    --------------------------------------------
      LOOP:  cpu time    0.87: real time    0.88

 eigenvalue-minimisations  :  1376
 total energy-change (2. order) :-0.4045894E-02  (-0.2078290E-02)
 number of electron       8.0000003 magnetization 
 augmentation part       -0.5210241 magnetization 

 Broyden mixing:
  rms(total) = 0.73572E-02    rms(broyden)= 0.73571E-02
  rms(prec ) = 0.24826E-01
  weight for this iteration     100.00

 eigenvalues of (default mixing * dielectric matrix)
  average eigenvalue GAMMA=   2.4547
  2.4547  2.4547

 Free energy of the ion-electron system (eV)
  ---------------------------------------------------
  alpha Z        PSCENC =         1.27387154
  Ewald energy   TEWEN  =      -165.35755031
  -Hartree energ DENC   =       -29.56707063
  -exchange      EXHF   =         0.00000000
  -V(xc)+E(xc)   XCENC  =       -21.30040817
  PAW double counting   =        63.09598789      -27.80515062
  entropy T*S    EENTRO =        -0.00172726
  eigenvalues    EBANDS =       -32.83198370
  atomic energy  EATOM  =       206.13311910
  ---------------------------------------------------
  free energy    TOTEN  =        -6.36091217 eV

  energy without entropy =       -6.35918490  energy(sigma->0) =       -6.36004854


--------------------------------------------------------------------------------------------------------




----------------------------------------- Iteration    1(   8)  ---------------------------------------


    POTLOK:  cpu time    0.03: real time    0.04
    SETDIJ:  cpu time    0.00: real time    0.00
     EDDAV:  cpu time    0.69: real time    0.69
       DOS:  cpu time    0.00: real time    0.00
    CHARGE:  cpu time    0.04: real time    0.04
    MIXING:  cpu time    0.00: real time    0.00
    --------------------------------------------
      LOOP:  cpu time    0.76: real time    0.78

 eigenvalue-minimisations  :  1152
 total energy-change (2. order) :-0.1264081E-03  (-0.1921688E-03)
 number of electron       8.0000003 magnetization 
 augmentation part       -0.5196946 magnetization 

 Broyden mixing:
  rms(total) = 0.33064E-02    rms(broyden)= 0.33064E-02
  rms(prec ) = 0.89117E-02
  weight for this iteration     100.00

 eigenvalues of (default mixing * dielectric matrix)
  average eigenvalue GAMMA=   2.0949
  1.1786  2.9984  2.1078

 Free energy of the ion-electron system (eV)
  ---------------------------------------------------
  alpha Z        PSCENC =         1.27387154
  Ewald energy   TEWEN  =      -165.35755031
  -Hartree energ DENC   =       -29.81654731
  -exchange      EXHF   =         0.00000000
  -V(xc)+E(xc)   XCENC  =       -21.27884602
  PAW double counting   =        63.51728659      -28.24667089
  entropy T*S    EENTRO =        -0.00172279
  eigenvalues    EBANDS =       -32.58397850
  atomic energy  EATOM  =       206.13311910
  ---------------------------------------------------
  free energy    TOTEN  =        -6.36103857 eV

  energy without entropy =       -6.35931578  energy(sigma->0) =       -6.36017718


--------------------------------------------------------------------------------------------------------




----------------------------------------- Iteration    1(   9)  ---------------------------------------


    POTLOK:  cpu time    0.03: real time    0.04
    SETDIJ:  cpu time    0.00: real time    0.00
     EDDAV:  cpu time    0.77: real time    0.77
       DOS:  cpu time    0.00: real time    0.00
    CHARGE:  cpu time    0.04: real time    0.04
    MIXING:  cpu time    0.00: real time    0.00
    --------------------------------------------
      LOOP:  cpu time    0.85: real time    0.86

 eigenvalue-minimisations  :  1344
 total energy-change (2. order) :-0.1142441E-03  (-0.1010965E-04)
 number of electron       8.0000003 magnetization 
 augmentation part       -0.5198971 magnetization 

 Broyden mixing:
  rms(total) = 0.14354E-02    rms(broyden)= 0.14354E-02
  rms(prec ) = 0.33659E-02
  weight for this iteration     100.00

 eigenvalues of (default mixing * dielectric matrix)
  average eigenvalue GAMMA=   2.3759
  0.9912  3.3359  2.9251  2.2515

 Free energy of the ion-electron system (eV)
  ---------------------------------------------------
  alpha Z        PSCENC =         1.27387154
  Ewald energy   TEWEN  =      -165.35755031
  -Hartree energ DENC   =       -29.84463495
  -exchange      EXHF   =         0.00000000
  -V(xc)+E(xc)   XCENC  =       -21.27603290
  PAW double counting   =        63.41247946      -28.13867151
  entropy T*S    EENTRO =        -0.00171943
  eigenvalues    EBANDS =       -32.56201382
  atomic energy  EATOM  =       206.13311910
  ---------------------------------------------------
  free energy    TOTEN  =        -6.36115282 eV

  energy without entropy =       -6.35943339  energy(sigma->0) =       -6.36029310


--------------------------------------------------------------------------------------------------------




----------------------------------------- Iteration    1(  10)  ---------------------------------------


    POTLOK:  cpu time    0.03: real time    0.04
    SETDIJ:  cpu time    0.00: real time    0.00
     EDDAV:  cpu time    0.74: real time    0.75
       DOS:  cpu time    0.00: real time    0.00
    CHARGE:  cpu time    0.04: real time    0.04
    MIXING:  cpu time    0.00: real time    0.00
    --------------------------------------------
      LOOP:  cpu time    0.82: real time    0.84

 eigenvalue-minimisations  :  1272
 total energy-change (2. order) :-0.5306810E-04  (-0.8831906E-05)
 number of electron       8.0000003 magnetization 
 augmentation part       -0.5198341 magnetization 

 Broyden mixing:
  rms(total) = 0.22550E-03    rms(broyden)= 0.22550E-03
  rms(prec ) = 0.50119E-03
  weight for this iteration     100.00

 eigenvalues of (default mixing * dielectric matrix)
  average eigenvalue GAMMA=   2.1732
  3.6667  2.6481  2.2810  1.0303  1.2400

 Free energy of the ion-electron system (eV)
  ---------------------------------------------------
  alpha Z        PSCENC =         1.27387154
  Ewald energy   TEWEN  =      -165.35755031
  -Hartree energ DENC   =       -29.85828757
  -exchange      EXHF   =         0.00000000
  -V(xc)+E(xc)   XCENC  =       -21.27465551
  PAW double counting   =        63.35379464      -28.07791900
  entropy T*S    EENTRO =        -0.00171492
  eigenvalues    EBANDS =       -32.55186387
  atomic energy  EATOM  =       206.13311910
  ---------------------------------------------------
  free energy    TOTEN  =        -6.36120589 eV

  energy without entropy =       -6.35949097  energy(sigma->0) =       -6.36034843


--------------------------------------------------------------------------------------------------------




----------------------------------------- Iteration    1(  11)  ---------------------------------------


    POTLOK:  cpu time    0.03: real time    0.06
    SETDIJ:  cpu time    0.00: real time    0.00
     EDDAV:  cpu time    0.86: real time    0.90
       DOS:  cpu time    0.00: real time    0.00
    CHARGE:  cpu time    0.04: real time    0.04
    MIXING:  cpu time    0.00: real time    0.00
    --------------------------------------------
      LOOP:  cpu time    0.94: real time    1.00

 eigenvalue-minimisations  :  1608
 total energy-change (2. order) :-0.7189010E-06  (-0.6662673E-07)
 number of electron       8.0000003 magnetization 
 augmentation part       -0.5198460 magnetization 

 Broyden mixing:
  rms(total) = 0.10434E-03    rms(broyden)= 0.10434E-03
  rms(prec ) = 0.22919E-03
  weight for this iteration     100.00

 eigenvalues of (default mixing * dielectric matrix)
  average eigenvalue GAMMA=   2.2742
  3.8459  3.0368  2.4761  2.2975  0.9945  0.9945

 Free energy of the ion-electron system (eV)
  ---------------------------------------------------
  alpha Z        PSCENC =         1.27387154
  Ewald energy   TEWEN  =      -165.35755031
  -Hartree energ DENC   =       -29.86059746
  -exchange      EXHF   =         0.00000000
  -V(xc)+E(xc)   XCENC  =       -21.27431885
  PAW double counting   =        63.35805832      -28.08233803
  entropy T*S    EENTRO =        -0.00171488
  eigenvalues    EBANDS =       -32.54973605
  atomic energy  EATOM  =       206.13311910
  ---------------------------------------------------
  free energy    TOTEN  =        -6.36120661 eV

  energy without entropy =       -6.35949173  energy(sigma->0) =       -6.36034917


--------------------------------------------------------------------------------------------------------




----------------------------------------- Iteration    1(  12)  ---------------------------------------


    POTLOK:  cpu time    0.03: real time    0.06
    SETDIJ:  cpu time    0.00: real time    0.00
     EDDAV:  cpu time    0.67: real time    0.70
       DOS:  cpu time    0.00: real time    0.00
    CHARGE:  cpu time    0.04: real time    0.04
    MIXING:  cpu time    0.00: real time    0.00
    --------------------------------------------
      LOOP:  cpu time    0.75: real time    0.81

 eigenvalue-minimisations  :  1152
 total energy-change (2. order) :-0.7474130E-06  (-0.6396877E-07)
 number of electron       8.0000003 magnetization 
 augmentation part       -0.5198379 magnetization 

 Broyden mixing:
  rms(total) = 0.20247E-04    rms(broyden)= 0.20247E-04
  rms(prec ) = 0.46504E-04
  weight for this iteration     100.00

 eigenvalues of (default mixing * dielectric matrix)
  average eigenvalue GAMMA=   2.1616
  3.8787  3.0171  2.7181  2.1704  1.0113  0.9742  1.3615

 Free energy of the ion-electron system (eV)
  ---------------------------------------------------
  alpha Z        PSCENC =         1.27387154
  Ewald energy   TEWEN  =      -165.35755031
  -Hartree energ DENC   =       -29.86111004
  -exchange      EXHF   =         0.00000000
  -V(xc)+E(xc)   XCENC  =       -21.27414192
  PAW double counting   =        63.36535278      -28.08984803
  entropy T*S    EENTRO =        -0.00171480
  eigenvalues    EBANDS =       -32.54918567
  atomic energy  EATOM  =       206.13311910
  ---------------------------------------------------
  free energy    TOTEN  =        -6.36120735 eV

  energy without entropy =       -6.35949255  energy(sigma->0) =       -6.36034995


--------------------------------------------------------------------------------------------------------




----------------------------------------- Iteration    1(  13)  ---------------------------------------


    POTLOK:  cpu time    0.03: real time    0.06
    SETDIJ:  cpu time    0.00: real time    0.00
     EDDAV:  cpu time    0.87: real time    0.91
       DOS:  cpu time    0.00: real time    0.00
    CHARGE:  cpu time    0.04: real time    0.04
    MIXING:  cpu time    0.00: real time    0.01
    --------------------------------------------
      LOOP:  cpu time    0.95: real time    1.03

 eigenvalue-minimisations  :  1632
 total energy-change (2. order) : 0.6291600E-07  (-0.8227458E-09)
 number of electron       8.0000003 magnetization 
 augmentation part       -0.5198404 magnetization 

 Broyden mixing:
  rms(total) = 0.36066E-05    rms(broyden)= 0.36066E-05
  rms(prec ) = 0.89750E-05
  weight for this iteration     100.00

 eigenvalues of (default mixing * dielectric matrix)
  average eigenvalue GAMMA=   2.2013
  3.9336  3.0189  3.0189  2.4009  2.2489  1.0173  1.0173  0.9544

 Free energy of the ion-electron system (eV)
  ---------------------------------------------------
  alpha Z        PSCENC =         1.27387154
  Ewald energy   TEWEN  =      -165.35755031
  -Hartree energ DENC   =       -29.86086606
  -exchange      EXHF   =         0.00000000
  -V(xc)+E(xc)   XCENC  =       -21.27416082
  PAW double counting   =        63.36424009      -28.08869332
  entropy T*S    EENTRO =        -0.00171480
  eigenvalues    EBANDS =       -32.54945272
  atomic energy  EATOM  =       206.13311910
  ---------------------------------------------------
  free energy    TOTEN  =        -6.36120729 eV

  energy without entropy =       -6.35949249  energy(sigma->0) =       -6.36034989


--------------------------------------------------------------------------------------------------------




----------------------------------------- Iteration    1(  14)  ---------------------------------------


    POTLOK:  cpu time    0.03: real time    0.05
    SETDIJ:  cpu time    0.00: real time    0.00
     EDDAV:  cpu time    0.67: real time    0.70
       DOS:  cpu time    0.00: real time    0.00
    CHARGE:  cpu time    0.04: real time    0.04
    MIXING:  cpu time    0.00: real time    0.01
    --------------------------------------------
      LOOP:  cpu time    0.75: real time    0.81

 eigenvalue-minimisations  :  1152
 total energy-change (2. order) : 0.1395105E-07  (-0.1085989E-09)
 number of electron       8.0000003 magnetization 
 augmentation part       -0.5198402 magnetization 

 Broyden mixing:
  rms(total) = 0.13700E-05    rms(broyden)= 0.13700E-05
  rms(prec ) = 0.32489E-05
  weight for this iteration     100.00

 eigenvalues of (default mixing * dielectric matrix)
  average eigenvalue GAMMA=   2.0760
  3.9120  3.0755  2.7071  2.7071  2.1866  0.9398  1.0048  1.0048  1.1466

 Free energy of the ion-electron system (eV)
  ---------------------------------------------------
  alpha Z        PSCENC =         1.27387154
  Ewald energy   TEWEN  =      -165.35755031
  -Hartree energ DENC   =       -29.86094596
  -exchange      EXHF   =         0.00000000
  -V(xc)+E(xc)   XCENC  =       -21.27415838
  PAW double counting   =        63.36384502      -28.08829111
  entropy T*S    EENTRO =        -0.00171480
  eigenvalues    EBANDS =       -32.54938239
  atomic energy  EATOM  =       206.13311910
  ---------------------------------------------------
  free energy    TOTEN  =        -6.36120728 eV

  energy without entropy =       -6.35949248  energy(sigma->0) =       -6.36034988


--------------------------------------------------------------------------------------------------------




----------------------------------------- Iteration    1(  15)  ---------------------------------------


    POTLOK:  cpu time    0.03: real time    0.06
    SETDIJ:  cpu time    0.00: real time    0.00
     EDDAV:  cpu time    0.50: real time    0.52
       DOS:  cpu time    0.00: real time    0.00
    CHARGE:  cpu time    0.04: real time    0.05
    MIXING:  cpu time    0.00: real time    0.00
    --------------------------------------------
      LOOP:  cpu time    0.58: real time    0.64

 eigenvalue-minimisations  :   728
 total energy-change (2. order) : 0.5518928E-09  (-0.2320181E-11)
 number of electron       8.0000003 magnetization 
 augmentation part       -0.5198401 magnetization 

 Broyden mixing:
  rms(total) = 0.17972E-06    rms(broyden)= 0.17970E-06
  rms(prec ) = 0.36579E-06
  weight for this iteration     100.00

 eigenvalues of (default mixing * dielectric matrix)
  average eigenvalue GAMMA=   2.1160
  3.9203  3.0587  2.8681  2.7397  2.3927  2.1919  1.0217  1.0217  0.9854  0.9598

 Free energy of the ion-electron system (eV)
  ---------------------------------------------------
  alpha Z        PSCENC =         1.27387154
  Ewald energy   TEWEN  =      -165.35755031
  -Hartree energ DENC   =       -29.86095395
  -exchange      EXHF   =         0.00000000
  -V(xc)+E(xc)   XCENC  =       -21.27415876
  PAW double counting   =        63.36382035      -28.08826613
  entropy T*S    EENTRO =        -0.00171480
  eigenvalues    EBANDS =       -32.54937434
  atomic energy  EATOM  =       206.13311910
  ---------------------------------------------------
  free energy    TOTEN  =        -6.36120728 eV

  energy without entropy =       -6.35949248  energy(sigma->0) =       -6.36034988


--------------------------------------------------------------------------------------------------------




----------------------------------------- Iteration    1(  16)  ---------------------------------------


    POTLOK:  cpu time    0.04: real time    0.07
    SETDIJ:  cpu time    0.00: real time    0.00
     EDDAV:  cpu time    0.44: real time    0.45
       DOS:  cpu time    0.00: real time    0.00
    CHARGE:  cpu time    0.04: real time    0.05
    MIXING:  cpu time    0.00: real time    0.00
    --------------------------------------------
      LOOP:  cpu time    0.53: real time    0.58

 eigenvalue-minimisations  :   576
 total energy-change (2. order) :-0.3414868E-09  (-0.4267781E-12)
 number of electron       8.0000003 magnetization 
 augmentation part       -0.5198401 magnetization 

 Broyden mixing:
  rms(total) = 0.32540E-07    rms(broyden)= 0.32439E-07
  rms(prec ) = 0.52218E-07
  weight for this iteration     100.00

 eigenvalues of (default mixing * dielectric matrix)
  average eigenvalue GAMMA=   2.0341
  3.9208  2.9947  2.9947  2.6176  2.6176  2.1967  1.0619  1.0619  0.9597  0.9597
  0.9900

 Free energy of the ion-electron system (eV)
  ---------------------------------------------------
  alpha Z        PSCENC =         1.27387154
  Ewald energy   TEWEN  =      -165.35755031
  -Hartree energ DENC   =       -29.86095272
  -exchange      EXHF   =         0.00000000
  -V(xc)+E(xc)   XCENC  =       -21.27415893
  PAW double counting   =        63.36383403      -28.08827992
  entropy T*S    EENTRO =        -0.00171480
  eigenvalues    EBANDS =       -32.54937528
  atomic energy  EATOM  =       206.13311910
  ---------------------------------------------------
  free energy    TOTEN  =        -6.36120728 eV

  energy without entropy =       -6.35949248  energy(sigma->0) =       -6.36034988


--------------------------------------------------------------------------------------------------------




----------------------------------------- Iteration    1(  17)  ---------------------------------------


    POTLOK:  cpu time    0.05: real time    0.06
    SETDIJ:  cpu time    0.00: real time    0.00
     EDDAV:  cpu time    0.46: real time    0.46
       DOS:  cpu time    0.00: real time    0.00
    CHARGE:  cpu time    0.04: real time    0.04
    MIXING:  cpu time    0.00: real time    0.00
    --------------------------------------------
      LOOP:  cpu time    0.56: real time    0.57

 eigenvalue-minimisations  :   576
 total energy-change (2. order) :-0.2904130E-09  (-0.1275425E-12)
 number of electron       8.0000003 magnetization 
 augmentation part       -0.5198401 magnetization 

 Broyden mixing:
  rms(total) = 0.22430E-07    rms(broyden)= 0.22284E-07
  rms(prec ) = 0.47426E-07
  weight for this iteration     100.00

 eigenvalues of (default mixing * dielectric matrix)
  average eigenvalue GAMMA=   2.0492
  3.9153  3.0283  3.0283  2.6631  2.6631  2.1871  2.1871  1.0485  1.0017  0.9616
  0.9616  0.9443

 Free energy of the ion-electron system (eV)
  ---------------------------------------------------
  alpha Z        PSCENC =         1.27387154
  Ewald energy   TEWEN  =      -165.35755031
  -Hartree energ DENC   =       -29.86095253
  -exchange      EXHF   =         0.00000000
  -V(xc)+E(xc)   XCENC  =       -21.27415888
  PAW double counting   =        63.36384169      -28.08828775
  entropy T*S    EENTRO =        -0.00171480
  eigenvalues    EBANDS =       -32.54937535
  atomic energy  EATOM  =       206.13311910
  ---------------------------------------------------
  free energy    TOTEN  =        -6.36120728 eV

  energy without entropy =       -6.35949248  energy(sigma->0) =       -6.36034988


--------------------------------------------------------------------------------------------------------




----------------------------------------- Iteration    1(  18)  ---------------------------------------


    POTLOK:  cpu time    0.06: real time    0.06
    SETDIJ:  cpu time    0.00: real time    0.00
     EDDAV:  cpu time    0.45: real time    0.45
       DOS:  cpu time    0.00: real time    0.00
    --------------------------------------------
      LOOP:  cpu time    0.51: real time    0.52

 eigenvalue-minimisations  :   576
 total energy-change (2. order) : 0.7403855E-10  (-0.1683696E-12)
 number of electron       8.0000003 magnetization 
 augmentation part       -0.5198401 magnetization 

 Free energy of the ion-electron system (eV)
  ---------------------------------------------------
  alpha Z        PSCENC =         1.27387154
  Ewald energy   TEWEN  =      -165.35755031
  -Hartree energ DENC   =       -29.86095209
  -exchange      EXHF   =         0.00000000
  -V(xc)+E(xc)   XCENC  =       -21.27415891
  PAW double counting   =        63.36384060      -28.08828662
  entropy T*S    EENTRO =        -0.00171480
  eigenvalues    EBANDS =       -32.54937580
  atomic energy  EATOM  =       206.13311910
  ---------------------------------------------------
  free energy    TOTEN  =        -6.36120728 eV

  energy without entropy =       -6.35949248  energy(sigma->0) =       -6.36034988


--------------------------------------------------------------------------------------------------------




 average (electrostatic) potential at core
  the test charge radii are     0.9892
  (the norm of the test charge is              1.0000)
       1 -90.7341       2 -90.7341
 
 
 
 E-fermi :  -0.6586     XC(G=0):  -6.0465     alpha+bet : -4.5381


 k-point     1 :       0.0000    0.0000    0.0000
  band No.  band energies     occupation 
      1      -8.2717      2.00000
      2      -4.5311      2.00000
      3      -0.5547      0.03084
      4      -0.5547      0.03084
      5      -0.5547      0.03084
      6       1.1731      0.00000
      7       1.1731      0.00000
      8       1.1731      0.00000

 k-point     2 :       0.0833    0.0000    0.0000
  band No.  band energies     occupation 
      1      -8.2387      2.00000
      2      -4.6226      2.00000
      3      -0.6004      0.17773
      4      -0.6004      0.17773
      5      -0.5720      0.06063
      6       1.2339      0.00000
      7       1.2410      0.00000
      8       1.2410      0.00000

 k-point     3 :       0.1667    0.0000    0.0000
  band No.  band energies     occupation 
      1      -8.1420      2.00000
      2      -4.8686      2.00000
      3      -0.7104      1.77643
      4      -0.7104      1.77643
      5      -0.6439      0.71451
      6       1.4080      0.00000
      7       1.4080      0.00000
      8       1.4516      0.00000

 k-point     4 :       0.2500    0.0000    0.0000
  band No.  band energies     occupation 
      1      -7.9909      2.00000
      2      -5.2044      2.00000
      3      -0.8362      1.99836
      4      -0.8362      1.99836
      5      -0.7697      1.97679
      6       1.6011      0.00000
      7       1.6011      0.00000
      8       1.8409      0.00000

 k-point     5 :       0.3333    0.0000    0.0000
  band No.  band energies     occupation 
      1      -7.8062      2.00000
      2      -5.5565      2.00000
      3      -0.9432      1.99998
      4      -0.9432      1.99998
      5      -0.9025      1.99988
      6       1.7601      0.00000
      7       1.7601      0.00000
      8       2.3295      0.00000

 k-point     6 :       0.4167    0.0000    0.0000
  band No.  band energies     occupation 
      1      -7.6339      2.00000
      2      -5.8426      2.00000
      3      -1.0129      2.00000
      4      -1.0129      2.00000
      5      -0.9978      2.00000
      6       1.8563      0.00000
      7       1.8563      0.00000
      8       2.7773      0.00000

 k-point     7 :       0.5000    0.0000    0.0000
  band No.  band energies     occupation 
      1      -7.5573      2.00000
      2      -5.9592      2.00000
      3      -1.0370      2.00000
      4      -1.0370      2.00000
      5      -1.0319      2.00000
      6       1.8874      0.00000
      7       1.8874      0.00000
      8       2.9724      0.00000

 k-point     8 :       0.0833    0.0833    0.0000
  band No.  band energies     occupation 
      1      -8.2275      2.00000
      2      -4.6520      2.00000
      3      -0.6739      1.29691
      4      -0.6739      1.29690
      5      -0.4434      0.00037
      6       1.0785      0.00000
      7       1.3430      0.00000
      8       1.3430      0.00000

 k-point     9 :       0.1667    0.0833    0.0000
  band No.  band energies     occupation 
      1      -8.1514      2.00000
      2      -4.8439      2.00000
      3      -0.8106      1.99543
      4      -0.7977      1.99237
      5      -0.3797      0.00003
      6       1.0786      0.00000
      7       1.5326      0.00000
      8       1.5537      0.00000

 k-point    10 :       0.2500    0.0833    0.0000
  band No.  band energies     occupation 
      1      -8.0171      2.00000
      2      -5.1460      2.00000
      3      -0.9955      2.00000
      4      -0.9244      1.99995
      5      -0.3967      0.00006
      6       1.2438      0.00000
      7       1.7371      0.00000
      8       1.8619      0.00000

 k-point    11 :       0.3333    0.0833    0.0000
  band No.  band energies     occupation 
      1      -7.8400      2.00000
      2      -5.4904      2.00000
      3      -1.1819      2.00000
      4      -1.0233      2.00000
      5      -0.4651      0.00087
      6       1.4865      0.00000
      7       1.8959      0.00000
      8       2.2430      0.00000

 k-point    12 :       0.4167    0.0833    0.0000
  band No.  band energies     occupation 
      1      -7.6552      2.00000
      2      -5.8021      2.00000
      3      -1.3272      2.00000
      4      -1.0787      2.00000
      5      -0.5397      0.01702
      6       1.6938      0.00000
      7       1.9783      0.00000
      8       2.6441      0.00000

 k-point    13 :       0.5000    0.0833    0.0000
  band No.  band energies     occupation 
      1      -7.5352      2.00000
      2      -5.9844      2.00000
      3      -1.4081      2.00000
      4      -1.0848      2.00000
      5      -0.5893      0.11745
      6       1.8198      0.00000
      7       1.9832      0.00000
      8       2.9109      0.00000

 k-point    14 :      -0.4167    0.0833    0.0000
  band No.  band energies     occupation 
      1      -7.5625      2.00000
      2      -5.9441      2.00000
      3      -1.4149      2.00000
      4      -1.0416      2.00000
      5      -0.6002      0.17631
      6       1.8630      0.00000
      7       1.9203      0.00000
      8       2.8483      0.00000

 k-point    15 :      -0.3333    0.0833    0.0000
  band No.  band energies     occupation 
      1      -7.7151      2.00000
      2      -5.7056      2.00000
      3      -1.3464      2.00000
      4      -0.9545      1.99999
      5      -0.5731      0.06334
      6       1.7955      0.00000
      7       1.8116      0.00000
      8       2.5064      0.00000

 k-point    16 :      -0.2500    0.0833    0.0000
  band No.  band energies     occupation 
      1      -7.9031      2.00000
      2      -5.3737      2.00000
      3      -1.2089      2.00000
      4      -0.8362      1.99835
      5      -0.5248      0.00942
      6       1.6187      0.00000
      7       1.6370      0.00000
      8       2.1179      0.00000

 k-point    17 :      -0.1667    0.0833    0.0000
  band No.  band energies     occupation 
      1      -8.0684      2.00000
      2      -5.0361      2.00000
      3      -1.0169      2.00000
      4      -0.7101      1.77367
      5      -0.4918      0.00253
      6       1.3944      0.00000
      7       1.4239      0.00000
      8       1.7933      0.00000

 k-point    18 :      -0.0833    0.0833    0.0000
  band No.  band energies     occupation 
      1      -8.1842      2.00000
      2      -4.7642      2.00000
      3      -0.7971      1.99219
      4      -0.6162      0.30949
      5      -0.5129      0.00587
      6       1.2427      0.00000
      7       1.2748      0.00000
      8       1.4974      0.00000

 k-point    19 :       0.1667    0.1667    0.0000
  band No.  band energies     occupation 
      1      -8.0960      2.00000
      2      -4.9703      2.00000
      3      -0.9294      1.99996
      4      -0.9294      1.99996
      5      -0.1717      0.00000
      6       0.8651      0.00000
      7       1.7457      0.00000
      8       1.7457      0.00000

 k-point    20 :       0.2500    0.1667    0.0000
  band No.  band energies     occupation 
      1      -7.9797      2.00000
      2      -5.2159      2.00000
      3      -1.1010      2.00000
      4      -1.0589      2.00000
      5      -0.0665      0.00000
      6       0.8597      0.00000
      7       1.9741      0.00000
      8       2.0111      0.00000

 k-point    21 :       0.3333    0.1667    0.0000
  band No.  band energies     occupation 
      1      -7.8139      2.00000
      2      -5.5259      2.00000
      3      -1.3187      2.00000
      4      -1.1564      2.00000
      5      -0.0533      0.00000
      6       1.0575      0.00000
      7       2.1532      0.00000
      8       2.3019      0.00000

 k-point    22 :       0.4167    0.1667    0.0000
  band No.  band energies     occupation 
      1      -7.6242      2.00000
      2      -5.8361      2.00000
      3      -1.5200      2.00000
      4      -1.2067      2.00000
      5      -0.0975      0.00000
      6       1.3577      0.00000
      7       2.2435      0.00000
      8       2.5707      0.00000

 k-point    23 :       0.5000    0.1667    0.0000
  band No.  band energies     occupation 
      1      -7.4691      2.00000
      2      -6.0625      2.00000
      3      -1.6596      2.00000
      4      -1.2040      2.00000
      5      -0.1510      0.00000
      6       1.6273      0.00000
      7       2.2378      0.00000
      8       2.7796      0.00000

 k-point    24 :      -0.4167    0.1667    0.0000
  band No.  band energies     occupation 
      1      -7.4451      2.00000
      2      -6.0956      2.00000
      3      -1.7146      2.00000
      4      -1.1495      2.00000
      5      -0.1894      0.00000
      6       1.7882      0.00000
      7       2.1482      0.00000
      8       2.8050      0.00000

 k-point    25 :      -0.3333    0.1667    0.0000
  band No.  band energies     occupation 
      1      -7.5727      2.00000
      2      -5.9138      2.00000
      3      -1.6754      2.00000
      4      -1.0506      2.00000
      5      -0.2133      0.00000
      6       1.8098      0.00000
      7       1.9891      0.00000
      8       2.5952      0.00000

 k-point    26 :      -0.2500    0.1667    0.0000
  band No.  band energies     occupation 
      1      -7.7604      2.00000
      2      -5.6191      2.00000
      3      -1.5397      2.00000
      4      -0.9230      1.99995
      5      -0.2474      0.00000
      6       1.6712      0.00000
      7       1.7817      0.00000
[...]
      8       2.8851      0.00000

 k-point    37 :       0.5000    0.3333    0.0000
  band No.  band energies     occupation 
      1      -7.2103      2.00000
      2      -6.3785      2.00000
      3      -1.7388      2.00000
      4      -1.4714      2.00000
      5       0.3427      0.00000
      6       0.9067      0.00000
      7       2.9088      0.00000
      8       2.9098      0.00000

 k-point    38 :      -0.4167    0.3333    0.0000
  band No.  band energies     occupation 
      1      -7.0974      2.00000
      2      -6.5081      2.00000
      3      -1.8939      2.00000
      4      -1.4208      2.00000
      5       0.3010      0.00000
      6       1.3334      0.00000
      7       2.7940      0.00000
      8       2.8273      0.00000

 k-point    39 :      -0.3333    0.3333    0.0000
  band No.  band energies     occupation 
      1      -7.1990      2.00000
      2      -6.3903      2.00000
      3      -1.9508      2.00000
      4      -1.3207      2.00000
      5       0.2272      0.00000
      6       1.6808      0.00000
      7       2.5652      0.00000
      8       2.6862      0.00000

 k-point    40 :       0.4167    0.4167    0.0000
  band No.  band energies     occupation 
      1      -7.2300      2.00000
      2      -6.3572      2.00000
      3      -1.5380      2.00000
      4      -1.5380      2.00000
      5       0.3971      0.00000
      6       0.4080      0.00000
      7       3.0977      0.00000
      8       3.0977      0.00000

 k-point    41 :       0.5000    0.4167    0.0000
  band No.  band energies     occupation 
      1      -7.0253      2.00000
      2      -6.5921      2.00000
      3      -1.6409      2.00000
      4      -1.5547      2.00000
      5       0.3896      0.00000
      6       0.5460      0.00000
      7       3.1428      0.00000
      8       3.1555      0.00000

 k-point    42 :      -0.4167    0.4167    0.0000
  band No.  band energies     occupation 
      1      -6.9165      2.00000
      2      -6.7061      2.00000
      3      -1.7943      2.00000
      4      -1.5138      2.00000
      5       0.3649      0.00000
      6       0.9106      0.00000
      7       3.0206      0.00000
      8       3.0442      0.00000

 k-point    43 :       0.5000    0.5000    0.0000
  band No.  band energies     occupation 
      1      -6.8144      2.00000
      2      -6.8144      2.00000
      3      -1.5837      2.00000
      4      -1.5837      2.00000
      5       0.3957      0.00000
      6       0.3957      0.00000
      7       3.2460      0.00000
      8       3.2460      0.00000

 k-point    44 :       0.2500    0.1667    0.0833
  band No.  band energies     occupation 
      1      -8.0557      2.00000
      2      -5.0609      2.00000
      3      -1.0561      2.00000
      4      -0.8526      1.99915
      5      -0.2662      0.00000
      6       1.0622      0.00000
      7       1.6833      0.00000
      8       1.8541      0.00000

 k-point    45 :       0.3333    0.1667    0.0833
  band No.  band energies     occupation 
      1      -7.9053      2.00000
      2      -5.3633      2.00000
      3      -1.2907      2.00000
      4      -0.9512      1.99998
      5      -0.2190      0.00000
      6       1.2172      0.00000
      7       1.8846      0.00000
      8       2.1411      0.00000

 k-point    46 :       0.4167    0.1667    0.0833
  band No.  band energies     occupation 
      1      -7.7200      2.00000
      2      -5.6882      2.00000
      3      -1.4773      2.00000
      4      -1.0555      2.00000
      5      -0.2304      0.00000
      6       1.4679      0.00000
      7       2.0465      0.00000
      8       2.4276      0.00000

 k-point    47 :       0.5000    0.1667    0.0833
  band No.  band energies     occupation 
      1      -7.5440      2.00000
      2      -5.9600      2.00000
      3      -1.5960      2.00000
      4      -1.1291      2.00000
      5      -0.2590      0.00000
      6       1.6824      0.00000
      7       2.1142      0.00000
      8       2.7160      0.00000

 k-point    48 :      -0.4167    0.1667    0.0833
  band No.  band energies     occupation 
      1      -7.4642      2.00000
      2      -6.0738      2.00000
      3      -1.6366      2.00000
      4      -1.1552      2.00000
      5      -0.2721      0.00000
      6       1.7649      0.00000
      7       2.1256      0.00000
      8       2.8561      0.00000

 k-point    49 :       0.3333    0.2500    0.0833
  band No.  band energies     occupation 
      1      -7.8461      2.00000
      2      -5.4659      2.00000
      3      -1.3145      2.00000
      4      -1.1401      2.00000
      5       0.0656      0.00000
      6       0.8522      0.00000
      7       2.1928      0.00000
      8       2.2620      0.00000

 k-point    50 :       0.4167    0.2500    0.0833
  band No.  band energies     occupation 
      1      -7.6685      2.00000
      2      -5.7609      2.00000
      3      -1.5281      2.00000
      4      -1.2298      2.00000
      5       0.1277      0.00000
      6       1.0417      0.00000
      7       2.3658      0.00000
      8       2.4693      0.00000

 k-point    51 :       0.5000    0.2500    0.0833
  band No.  band energies     occupation 
      1      -7.4788      2.00000
      2      -6.0399      2.00000
      3      -1.7007      2.00000
      4      -1.2901      2.00000
      5       0.1237      0.00000
      6       1.3452      0.00000
      7       2.4222      0.00000
      8       2.6467      0.00000

 k-point    52 :      -0.4167    0.2500    0.0833
  band No.  band energies     occupation 
      1      -7.3522      2.00000
      2      -6.2093      2.00000
      3      -1.8039      2.00000
      4      -1.2960      2.00000
      5       0.0988      0.00000
      6       1.6011      0.00000
      7       2.3965      0.00000
      8       2.7452      0.00000

 k-point    53 :      -0.3333    0.2500    0.0833
  band No.  band energies     occupation 
      1      -7.3881      2.00000
      2      -6.1624      2.00000
      3      -1.8188      2.00000
      4      -1.2453      2.00000
      5       0.0732      0.00000
      6       1.6749      0.00000
      7       2.3291      0.00000
      8       2.6884      0.00000

 k-point    54 :      -0.2500    0.2500    0.0833
  band No.  band energies     occupation 
      1      -7.5527      2.00000
      2      -5.9356      2.00000
      3      -1.7362      2.00000
      4      -1.1496      2.00000
      5       0.0336      0.00000
      6       1.5375      0.00000
      7       2.2430      0.00000
      8       2.5117      0.00000

 k-point    55 :      -0.1667    0.2500    0.0833
  band No.  band energies     occupation 
      1      -7.7431      2.00000
      2      -5.6440      2.00000
      3      -1.5561      2.00000
      4      -1.0354      2.00000
      5      -0.0583      0.00000
      6       1.3314      0.00000
      7       2.0766      0.00000
      8       2.3455      0.00000

 k-point    56 :       0.4167    0.3333    0.0833
  band No.  band energies     occupation 
      1      -7.5624      2.00000
      2      -5.9170      2.00000
      3      -1.5110      2.00000
      4      -1.3843      2.00000
      5       0.3342      0.00000
      6       0.6876      0.00000
      7       2.6378      0.00000
      8       2.6814      0.00000

 k-point    57 :       0.5000    0.3333    0.0833
  band No.  band energies     occupation 
      1      -7.3676      2.00000
      2      -6.1830      2.00000
      3      -1.6902      2.00000
      4      -1.4475      2.00000
      5       0.3870      0.00000
      6       0.9313      0.00000
      7       2.6921      0.00000
      8       2.8025      0.00000

 k-point    58 :      -0.4167    0.3333    0.0833
  band No.  band energies     occupation 
      1      -7.2028      2.00000
      2      -6.3865      2.00000
      3      -1.8442      2.00000
      4      -1.4479      2.00000
      5       0.3700      0.00000
      6       1.3018      0.00000
      7       2.6709      0.00000
      8       2.7816      0.00000

 k-point    59 :      -0.3333    0.3333    0.0833
  band No.  band energies     occupation 
      1      -7.1990      2.00000
      2      -6.3904      2.00000
      3      -1.9195      2.00000
      4      -1.3862      2.00000
      5       0.3236      0.00000
      6       1.5898      0.00000
      7       2.5729      0.00000
      8       2.6753      0.00000

 k-point    60 :      -0.2500    0.3333    0.0833
  band No.  band energies     occupation 
      1      -7.3593      2.00000
      2      -6.1937      2.00000
      3      -1.8867      2.00000
      4      -1.2771      2.00000
      5       0.2253      0.00000
      6       1.6398      0.00000
      7       2.4377      0.00000
      8       2.5607      0.00000

 k-point    61 :       0.5000    0.4167    0.0833
  band No.  band energies     occupation 
      1      -7.2140      2.00000
      2      -6.3746      2.00000
      3      -1.6210      2.00000
      4      -1.5545      2.00000
      5       0.4789      0.00000
      6       0.5879      0.00000
      7       2.9517      0.00000
      8       3.0348      0.00000

 k-point    62 :      -0.4167    0.4167    0.0833
  band No.  band energies     occupation 
      1      -7.0206      2.00000
      2      -6.5938      2.00000
      3      -1.7680      2.00000
      4      -1.5685      2.00000
      5       0.4970      0.00000
      6       0.8973      0.00000
      7       2.9102      0.00000
      8       2.9886      0.00000

 k-point    63 :      -0.3333    0.4167    0.0833
  band No.  band energies     occupation 
      1      -7.0130      2.00000
      2      -6.6001      2.00000
      3      -1.8935      2.00000
      4      -1.5032      2.00000
      5       0.4494      0.00000
      6       1.3044      0.00000
      7       2.7891      0.00000
      8       2.7991      0.00000

 k-point    64 :      -0.4167    0.5000    0.0833
  band No.  band energies     occupation 
      1      -6.8131      2.00000
      2      -6.8131      2.00000
      3      -1.6356      2.00000
      4      -1.6356      2.00000
      5       0.5367      0.00000
      6       0.5367      0.00000
      7       3.1273      0.00000
      8       3.1273      0.00000

 k-point    65 :       0.5000    0.3333    0.1667
  band No.  band energies     occupation 
      1      -7.4835      2.00000
      2      -6.0287      2.00000
      3      -1.7191      2.00000
      4      -1.3297      2.00000
      5       0.3082      0.00000
      6       1.1567      0.00000
      7       2.5310      0.00000
      8       2.5686      0.00000

 k-point    66 :      -0.4167    0.3333    0.1667
  band No.  band energies     occupation 
      1      -7.2946      2.00000
      2      -6.2746      2.00000
      3      -1.8399      2.00000
      4      -1.4209      2.00000
      5       0.4052      0.00000
      6       1.3695      0.00000
      7       2.5608      0.00000
      8       2.6616      0.00000

 k-point    67 :      -0.3333    0.3333    0.1667
  band No.  band energies     occupation 
      1      -7.1989      2.00000
      2      -6.3905      2.00000
      3      -1.8808      2.00000
      4      -1.4564      2.00000
      5       0.4291      0.00000
      6       1.4880      0.00000
      7       2.5820      0.00000
      8       2.6633      0.00000

 k-point    68 :      -0.4167    0.4167    0.1667
  band No.  band energies     occupation 
      1      -7.1684      2.00000
      2      -6.4251      2.00000
      3      -1.7784      2.00000
      4      -1.5723      2.00000
      5       0.6245      0.00000
      6       1.0039      0.00000
      7       2.6908      0.00000
      8       2.8547      0.00000

 k-point    69 :      -0.3333    0.4167    0.1667
  band No.  band energies     occupation 
      1      -7.0158      2.00000
      2      -6.5955      2.00000
      3      -1.8509      2.00000
      4      -1.6167      2.00000
      5       0.7017      0.00000
      6       1.2266      0.00000
      7       2.6699      0.00000
      8       2.7429      0.00000

 k-point    70 :      -0.2500    0.4167    0.1667
  band No.  band energies     occupation 
      1      -7.0990      2.00000
      2      -6.5032      2.00000
      3      -1.8874      2.00000
      4      -1.5501      2.00000
      5       0.6202      0.00000
      6       1.3750      0.00000
      7       2.6205      0.00000
      8       2.6704      0.00000

 k-point    71 :      -0.3333    0.5000    0.1667
  band No.  band energies     occupation 
      1      -6.8107      2.00000
      2      -6.8107      2.00000
      3      -1.7276      2.00000
      4      -1.7276      2.00000
      5       0.8455      0.00000
      6       0.8455      0.00000
      7       2.8474      0.00000
      8       2.8474      0.00000

 k-point    72 :      -0.2500    0.5000    0.2500
  band No.  band energies     occupation 
      1      -6.8095      2.00000
      2      -6.8095      2.00000
      3      -1.7691      2.00000
      4      -1.7691      2.00000
      5       1.0276      0.00000
      6       1.0276      0.00000
      7       2.6735      0.00000
      8       2.6735      0.00000


--------------------------------------------------------------------------------------------------------


 soft charge-density along one line, spin component           1
         0         1         2         3         4         5         6         7         8         9
 total charge-density along one line
 
 pseudopotential strength for first ion, spin component:           1
 19.223   0.005   0.000   0.000   0.000  -0.000  -0.000  -0.000
  0.005   0.006  -0.000  -0.000  -0.000   0.000   0.000   0.000
  0.000  -0.000   4.278  -0.000  -0.000   0.000   0.000   0.000
  0.000  -0.000  -0.000   4.278  -0.000   0.000   0.000   0.000
  0.000  -0.000  -0.000  -0.000   4.278   0.000   0.000   0.000
 -0.000   0.000   0.000   0.000   0.000   0.004  -0.000  -0.000
 -0.000   0.000   0.000   0.000   0.000  -0.000   0.004  -0.000
 -0.000   0.000   0.000   0.000   0.000  -0.000  -0.000   0.004
 total augmentation occupancy for first ion, spin component:           1
  1.907   0.099   0.000   0.000   0.000   0.000  -0.000   0.000
  0.099   0.090   0.000   0.000   0.000   0.000   0.000   0.000
  0.000   0.000   0.629   0.000   0.000  -0.113   0.000   0.000
  0.000   0.000   0.000   0.629  -0.000   0.000  -0.113   0.000
  0.000   0.000   0.000  -0.000   0.629   0.000   0.000  -0.113
 -0.000   0.000  -0.113   0.000   0.000   0.028   0.000   0.000
 -0.000   0.000   0.000  -0.113   0.000  -0.000   0.028  -0.000
  0.000   0.000   0.000   0.000  -0.113   0.000   0.000   0.028


------------------------ aborting loop because EDIFF is reached ----------------------------------------


    CHARGE:  cpu time    0.05: real time    0.05
    FORLOC:  cpu time    0.00: real time    0.00
    FORNL :  cpu time    0.08: real time    0.08
    STRESS:  cpu time    0.71: real time    0.71
    FORCOR:  cpu time    0.03: real time    0.03
    FORHAR:  cpu time    0.01: real time    0.01
    MIXING:  cpu time    0.00: real time    0.00
    OFIELD:  cpu time    0.00: real time    0.00

  FORCE on cell =-STRESS in cart. coord.  units (eV):
  Direction    XX          YY          ZZ          XY          YZ          ZX
  --------------------------------------------------------------------------------------
  Alpha Z     1.27387     1.27387     1.27387
  Ewald     -55.11921   -55.11921   -55.11921    -0.00000     0.00000    -0.00000
  Hartree     9.95365     9.95365     9.95365    -0.00000    -0.00000    -0.00000
  E(xc)     -22.03992   -22.03992   -22.03992    -0.00000    -0.00000    -0.00000
  Local     -48.05016   -48.05016   -48.05016     0.00001     0.00001     0.00001
  n-local    77.75314    79.24543    73.34797     1.30519    -0.41653    -0.10231
  augment   -13.31067   -13.31067   -13.31067    -0.00001    -0.00001    -0.00001
  Kinetic    47.00023    49.07659    38.40556     2.90833    -1.12893     0.52736
  Fock        0.00000     0.00000     0.00000     0.00000     0.00000     0.00000
  -------------------------------------------------------------------------------------
  Total      -5.68280    -5.68280    -5.68280     0.00000    -0.00000     0.00000
  in kB     -86.13597   -86.13597   -86.13597     0.00000    -0.00000     0.00000
  external pressure =      -86.14 kB  Pullay stress =        0.00 kB


 VOLUME and BASIS-vectors are now :
 -----------------------------------------------------------------------------
  energy-cutoff  :      600.00
  volume of cell :      105.70
      direct lattice vectors                 reciprocal lattice vectors
     0.000000000  3.752776750  3.752776750    -0.133234678  0.133234678  0.133234678
     3.752776750  0.000000000  3.752776750     0.133234678 -0.133234678  0.133234678
     3.752776750  3.752776750  0.000000000     0.133234678  0.133234678 -0.133234678

  length of vectors
     5.307227776  5.307227776  5.307227776     0.230769231  0.230769231  0.230769231


 FORCES acting on ions
    electron-ion (+dipol)            ewald-force                    non-local-force                 convergence-correction
 -----------------------------------------------------------------------------------------------
   0.884E-07 0.884E-07 0.862E-07   -.943E-15 -.229E-14 0.810E-15   -.208E-16 -.208E-16 -.243E-16   0.592E-13 0.566E-13 0.587E-13
   -.884E-07 -.884E-07 -.862E-07   0.895E-15 0.228E-14 -.876E-15   0.208E-16 0.173E-16 0.278E-16   -.544E-13 -.548E-13 -.571E-13
 -----------------------------------------------------------------------------------------------
   -.811E-13 -.269E-14 0.691E-13   -.478E-16 -.951E-17 -.661E-16   0.000E+00 -.347E-17 0.347E-17   0.486E-14 0.187E-14 0.160E-14
 
 
 POSITION                                       TOTAL-FORCE (eV/Angst)
 -----------------------------------------------------------------------------------
      0.00000      0.00000      0.00000         0.000000      0.000000      0.000000
      1.87639      1.87639      1.87639        -0.000000     -0.000000     -0.000000
 -----------------------------------------------------------------------------------
    total drift:                               -0.000000     -0.000000      0.000000


--------------------------------------------------------------------------------------------------------



  FREE ENERGIE OF THE ION-ELECTRON SYSTEM (eV)
  ---------------------------------------------------
  free  energy   TOTEN  =        -6.36120728 eV

  energy  without entropy=       -6.35949248  energy(sigma->0) =       -6.36034988
 


--------------------------------------------------------------------------------------------------------


    POTLOK:  cpu time    0.04: real time    0.04


--------------------------------------------------------------------------------------------------------


 writing wavefunctions
     LOOP+:  cpu time   15.24: real time   15.95
    4ORBIT:  cpu time    0.00: real time    0.00

 total amount of memory used by VASP on root node    61646. kBytes
========================================================================

   base      :      30000. kBytes
   nonl-proj :      16481. kBytes
   fftplans  :       2401. kBytes
   grid      :       4538. kBytes
   one-center:          6. kBytes
   wavefun   :       8220. kBytes
 
  
  
 General timing and accounting informations for this job:
 ========================================================
  
                  Total CPU time used (sec):       15.980
                            User time (sec):       15.512
                          System time (sec):        0.468
                         Elapsed time (sec):       16.841
  
                   Maximum memory used (kb):       75420.
                   Average memory used (kb):           0.
  
                          Minor page faults:        13888
                          Major page faults:            6
                 Voluntary context switches:          710
