 vasp.5.3.5 31Mar14 (build Jun 01 2017 17:55:53) complex                        
  
 executed on             LinuxIFC date 2020.11.10  15:17:16
 running on    4 total cores
 distrk:  each k-point on    4 cores,    1 groups
 distr:  one band on NCORES_PER_BAND=   1 cores,    4 groups


--------------------------------------------------------------------------------------------------------


 INCAR:
 POTCAR:   PAW_PBE Si 05Jan2001                   
 POTCAR:   PAW_PBE Si 05Jan2001                   
   VRHFIN =Si: s2p2                                                             
   LEXCH  = PE                                                                  
   EATOM  =   103.0669 eV,    7.5752 Ry                                         
                                                                                
   TITEL  = PAW_PBE Si 05Jan2001                                                
   LULTRA =        F    use ultrasoft PP ?                                      
   IUNSCR =        1    unscreen: 0-lin 1-nonlin 2-no                           
   RPACOR =    1.500    partial core radius                                     
   POMASS =   28.085; ZVAL   =    4.000    mass and valenz                      
   RCORE  =    1.900    outmost cutoff radius                                   
   RWIGS  =    2.480; RWIGS  =    1.312    wigner-seitz radius (au A)           
   ENMAX  =  245.345; ENMIN  =  184.009 eV                                      
   ICORE  =        2    local potential                                         
   LCOR   =        T    correct aug charges                                     
   LPAW   =        T    paw PP                                                  
   EAUG   =  322.069                                                            
   DEXC   =    -.007                                                            
   RMAX   =    2.944    core radius for proj-oper                               
   RAUG   =    1.300    factor for augmentation sphere                          
   RDEP   =    1.993    radius for radial grids                                 
   QCUT   =   -4.246; QGAM   =    8.493    optimization parameters              
                                                                                
   Description                                                                  
     l     E      TYP  RCUT    TYP  RCUT                                        
     0   .000     23  1.900                                                     
     0   .000     23  1.900                                                     
     1   .000     23  1.900                                                     
     1   .000     23  1.900                                                     
     2   .000      7  1.900                                                     
  local pseudopotential read in
  partial core-charges read in
  atomic valenz-charges read in
  non local Contribution for L=           0  read in
    real space projection operators read in
  non local Contribution for L=           0  read in
    real space projection operators read in
  non local Contribution for L=           1  read in
    real space projection operators read in
  non local Contribution for L=           1  read in
    real space projection operators read in
    PAW grid and wavefunctions read in
 
   number of l-projection  operators is LMAX  =           4
   number of lm-projection operators is LMMAX =           8
 
 PAW_PBE Si 05Jan2001                   :
 energy of atom  1       EATOM= -103.0669
 kinetic energy error for atom=    0.0003 (will be added to EATOM!!)
 
 
 POSCAR: Si
  positions in direct lattice
  velocities in cartesian coordinates
  No initial velocities read in
 exchange correlation table for  LEXCH =        8
   RHO(1)=    0.500       N(1)  =     2000
   RHO(2)=  100.500       N(2)  =     4000
 


--------------------------------------------------------------------------------------------------------


 ion  position               nearest neighbor table
   1  0.000  0.000  0.000-   2 2.20   2 2.20   2 2.20   2 2.20
   2  0.250  0.250  0.250-   1 2.20   1 2.20   1 2.20   1 2.20
 
  LATTYP: Found a face centered cubic cell.
 ALAT       =     5.0806823689
  
  Lattice vectors:
  
 A1 = (   0.0000000000,   2.5403411844,   2.5403411844)
 A2 = (   2.5403411844,   0.0000000000,   2.5403411844)
 A3 = (   2.5403411844,   2.5403411844,   0.0000000000)


Analysis of symmetry for initial positions (statically):
=====================================================================
 Subroutine PRICEL returns:
 Original cell was already a primitive cell.
 

 Routine SETGRP: Setting up the symmetry group for a 
 face centered cubic supercell.


 Subroutine GETGRP returns: Found 48 space group operations
 (whereof 24 operations were pure point group operations)
 out of a pool of 48 trial point group operations.


The static configuration has the point symmetry T_d .
 The point group associated with its full space group is O_h .


Analysis of symmetry for dynamics (positions and initial velocities):
=====================================================================
 Subroutine PRICEL returns:
 Original cell was already a primitive cell.
 

 Routine SETGRP: Setting up the symmetry group for a 
 face centered cubic supercell.


 Subroutine GETGRP returns: Found 48 space group operations
 (whereof 24 operations were pure point group operations)
 out of a pool of 48 trial point group operations.


The dynamic configuration has the point symmetry T_d .
 The point group associated with its full space group is O_h .


Analysis of constrained symmetry for selective dynamics:
=====================================================================
 Subroutine PRICEL returns:
 Original cell was already a primitive cell.
 

 Routine SETGRP: Setting up the symmetry group for a 
 face centered cubic supercell.


 Subroutine GETGRP returns: Found 48 space group operations
 (whereof 24 operations were pure point group operations)
 out of a pool of 48 trial point group operations.


The constrained configuration has the point symmetry T_d .
 The point group associated with its full space group is O_h .
 
 
 KPOINTS: Gamma centered Monkhorst-Pack           

Automatic generation of k-mesh.
Space group operators:
 irot       det(A)        alpha          n_x          n_y          n_z        tau_x        tau_y        tau_z
    1     1.000000     0.000000     1.000000     0.000000     0.000000     0.000000     0.000000     0.000000
    2     1.000000   120.000000    -0.577350    -0.577350    -0.577350     0.000000     0.000000     0.000000
    3     1.000000   120.000000     0.577350     0.577350     0.577350     0.000000     0.000000     0.000000
    4    -1.000000    90.000000     0.000000     0.000000    -1.000000     0.000000     0.000000     0.000000
    5    -1.000000   180.000000     0.000000     0.707107     0.707107     0.000000     0.000000     0.000000
    6    -1.000000    90.000000     0.000000     1.000000     0.000000     0.000000     0.000000     0.000000
    7     1.000000   180.000000     0.000000     0.000000     1.000000     0.000000     0.000000     0.000000
    8     1.000000   120.000000    -0.577350     0.577350     0.577350     0.000000     0.000000     0.000000
    9     1.000000   120.000000    -0.577350     0.577350    -0.577350     0.000000     0.000000     0.000000
   10    -1.000000    90.000000     0.000000     0.000000     1.000000     0.000000     0.000000     0.000000
   11    -1.000000    90.000000    -1.000000     0.000000     0.000000     0.000000     0.000000     0.000000
   12    -1.000000   180.000000     0.707107     0.000000     0.707107     0.000000     0.000000     0.000000
   13     1.000000   120.000000     0.577350    -0.577350     0.577350     0.000000     0.000000     0.000000
   14     1.000000   120.000000    -0.577350    -0.577350     0.577350     0.000000     0.000000     0.000000
   15     1.000000   180.000000     1.000000     0.000000     0.000000     0.000000     0.000000     0.000000
   16    -1.000000    90.000000     0.000000    -1.000000     0.000000     0.000000     0.000000     0.000000
   17    -1.000000   180.000000     0.707107     0.707107     0.000000     0.000000     0.000000     0.000000
   18    -1.000000    90.000000     1.000000     0.000000     0.000000     0.000000     0.000000     0.000000
   19     1.000000   120.000000     0.577350    -0.577350    -0.577350     0.000000     0.000000     0.000000
   20     1.000000   180.000000     0.000000     1.000000     0.000000     0.000000     0.000000     0.000000
   21     1.000000   120.000000     0.577350     0.577350    -0.577350     0.000000     0.000000     0.000000
   22    -1.000000   180.000000     0.000000    -0.707107     0.707107     0.000000     0.000000     0.000000
   23    -1.000000   180.000000     0.707107    -0.707107     0.000000     0.000000     0.000000     0.000000
   24    -1.000000   180.000000     0.707107     0.000000    -0.707107     0.000000     0.000000     0.000000
   25    -1.000000     0.000000     1.000000     0.000000     0.000000     0.250000     0.250000     0.250000
   26    -1.000000   120.000000    -0.577350    -0.577350    -0.577350     0.250000     0.250000     0.250000
   27    -1.000000   120.000000     0.577350     0.577350     0.577350     0.250000     0.250000     0.250000
   28     1.000000    90.000000     0.000000     0.000000    -1.000000     0.250000     0.250000     0.250000
   29     1.000000   180.000000     0.000000     0.707107     0.707107     0.250000     0.250000     0.250000
   30     1.000000    90.000000     0.000000     1.000000     0.000000     0.250000     0.250000     0.250000
   31    -1.000000   180.000000     0.000000     0.000000     1.000000     0.250000     0.250000     0.250000
   32    -1.000000   120.000000    -0.577350     0.577350     0.577350     0.250000     0.250000     0.250000
   33    -1.000000   120.000000    -0.577350     0.577350    -0.577350     0.250000     0.250000     0.250000
   34     1.000000    90.000000     0.000000     0.000000     1.000000     0.250000     0.250000     0.250000
   35     1.000000    90.000000    -1.000000     0.000000     0.000000     0.250000     0.250000     0.250000
   36     1.000000   180.000000     0.707107     0.000000     0.707107     0.250000     0.250000     0.250000
   37    -1.000000   120.000000     0.577350    -0.577350     0.577350     0.250000     0.250000     0.250000
   38    -1.000000   120.000000    -0.577350    -0.577350     0.577350     0.250000     0.250000     0.250000
   39    -1.000000   180.000000     1.000000     0.000000     0.000000     0.250000     0.250000     0.250000
   40     1.000000    90.000000     0.000000    -1.000000     0.000000     0.250000     0.250000     0.250000
   41     1.000000   180.000000     0.707107     0.707107     0.000000     0.250000     0.250000     0.250000
   42     1.000000    90.000000     1.000000     0.000000     0.000000     0.250000     0.250000     0.250000
   43    -1.000000   120.000000     0.577350    -0.577350    -0.577350     0.250000     0.250000     0.250000
   44    -1.000000   180.000000     0.000000     1.000000     0.000000     0.250000     0.250000     0.250000
   45    -1.000000   120.000000     0.577350     0.577350    -0.577350     0.250000     0.250000     0.250000
   46     1.000000   180.000000     0.000000    -0.707107     0.707107     0.250000     0.250000     0.250000
   47     1.000000   180.000000     0.707107    -0.707107     0.000000     0.250000     0.250000     0.250000
   48     1.000000   180.000000     0.707107     0.000000    -0.707107     0.250000     0.250000     0.250000
 
 Subroutine IBZKPT returns following result:
 ===========================================
 
 Found     72 irreducible k-points:
 
 Following reciprocal coordinates:
            Coordinates               Weight
  0.000000  0.000000  0.000000      1.000000
  0.083333  0.000000  0.000000      8.000000
  0.166667  0.000000  0.000000      8.000000
  0.250000  0.000000  0.000000      8.000000
  0.333333  0.000000  0.000000      8.000000
  0.416667  0.000000  0.000000      8.000000
  0.500000  0.000000  0.000000      4.000000
  0.083333  0.083333  0.000000      6.000000
  0.166667  0.083333  0.000000     24.000000
  0.250000  0.083333  0.000000     24.000000
  0.333333  0.083333  0.000000     24.000000
  0.416667  0.083333  0.000000     24.000000
  0.500000  0.083333  0.000000     24.000000
 -0.416667  0.083333  0.000000     24.000000
 -0.333333  0.083333  0.000000     24.000000
 -0.250000  0.083333  0.000000     24.000000
 -0.166667  0.083333  0.000000     24.000000
 -0.083333  0.083333  0.000000     12.000000
  0.166667  0.166667  0.000000      6.000000
  0.250000  0.166667  0.000000     24.000000
  0.333333  0.166667  0.000000     24.000000
  0.416667  0.166667  0.000000     24.000000
  0.500000  0.166667  0.000000     24.000000
 -0.416667  0.166667  0.000000     24.000000
 -0.333333  0.166667  0.000000     24.000000
 -0.250000  0.166667  0.000000     24.000000
 -0.166667  0.166667  0.000000     12.000000
  0.250000  0.250000  0.000000      6.000000
  0.333333  0.250000  0.000000     24.000000
  0.416667  0.250000  0.000000     24.000000
  0.500000  0.250000  0.000000     24.000000
 -0.416667  0.250000  0.000000     24.000000
 -0.333333  0.250000  0.000000     24.000000
 -0.250000  0.250000  0.000000     12.000000
  0.333333  0.333333  0.000000      6.000000
  0.416667  0.333333  0.000000     24.000000
  0.500000  0.333333  0.000000     24.000000
 -0.416667  0.333333  0.000000     24.000000
 -0.333333  0.333333  0.000000     12.000000
  0.416667  0.416667  0.000000      6.000000
  0.500000  0.416667  0.000000     24.000000
 -0.416667  0.416667  0.000000     12.000000
  0.500000  0.500000  0.000000      3.000000
  0.250000  0.166667  0.083333     24.000000
  0.333333  0.166667  0.083333     48.000000
  0.416667  0.166667  0.083333     48.000000
  0.500000  0.166667  0.083333     48.000000
 -0.416667  0.166667  0.083333     24.000000
  0.333333  0.250000  0.083333     24.000000
  0.416667  0.250000  0.083333     48.000000
  0.500000  0.250000  0.083333     48.000000
 -0.416667  0.250000  0.083333     48.000000
 -0.333333  0.250000  0.083333     48.000000
 -0.250000  0.250000  0.083333     48.000000
 -0.166667  0.250000  0.083333     24.000000
  0.416667  0.333333  0.083333     24.000000
  0.500000  0.333333  0.083333     48.000000
 -0.416667  0.333333  0.083333     48.000000
 -0.333333  0.333333  0.083333     48.000000
 -0.250000  0.333333  0.083333     24.000000
  0.500000  0.416667  0.083333     24.000000
 -0.416667  0.416667  0.083333     48.000000
 -0.333333  0.416667  0.083333     24.000000
 -0.416667  0.500000  0.083333     12.000000
  0.500000  0.333333  0.166667     24.000000
 -0.416667  0.333333  0.166667     48.000000
 -0.333333  0.333333  0.166667     24.000000
 -0.416667  0.416667  0.166667     24.000000
 -0.333333  0.416667  0.166667     48.000000
 -0.250000  0.416667  0.166667     24.000000
 -0.333333  0.500000  0.166667     12.000000
 -0.250000  0.500000  0.250000      6.000000
 
 Following cartesian coordinates:
            Coordinates               Weight
  0.000000  0.000000  0.000000      1.000000
 -0.083333  0.083333  0.083333      8.000000
 -0.166667  0.166667  0.166667      8.000000
 -0.250000  0.250000  0.250000      8.000000
 -0.333333  0.333333  0.333333      8.000000
 -0.416667  0.416667  0.416667      8.000000
 -0.500000  0.500000  0.500000      4.000000
  0.000000  0.000000  0.166667      6.000000
 -0.083333  0.083333  0.250000     24.000000
 -0.166667  0.166667  0.333333     24.000000
 -0.250000  0.250000  0.416667     24.000000
 -0.333333  0.333333  0.500000     24.000000
 -0.416667  0.416667  0.583333     24.000000
  0.500000 -0.500000 -0.333333     24.000000
  0.416667 -0.416667 -0.250000     24.000000
  0.333333 -0.333333 -0.166667     24.000000
  0.250000 -0.250000 -0.083333     24.000000
  0.166667 -0.166667  0.000000     12.000000
  0.000000  0.000000  0.333333      6.000000
 -0.083333  0.083333  0.416667     24.000000
 -0.166667  0.166667  0.500000     24.000000
 -0.250000  0.250000  0.583333     24.000000
 -0.333333  0.333333  0.666667     24.000000
  0.583333 -0.583333 -0.250000     24.000000
  0.500000 -0.500000 -0.166667     24.000000
  0.416667 -0.416667 -0.083333     24.000000
  0.333333 -0.333333  0.000000     12.000000
  0.000000  0.000000  0.500000      6.000000
 -0.083333  0.083333  0.583333     24.000000
 -0.166667  0.166667  0.666667     24.000000
 -0.250000  0.250000  0.750000     24.000000
  0.666667 -0.666667 -0.166667     24.000000
  0.583333 -0.583333 -0.083333     24.000000
  0.500000 -0.500000  0.000000     12.000000
  0.000000  0.000000  0.666667      6.000000
 -0.083333  0.083333  0.750000     24.000000
 -0.166667  0.166667  0.833333     24.000000
  0.750000 -0.750000 -0.083333     24.000000
  0.666667 -0.666667  0.000000     12.000000
  0.000000  0.000000  0.833333      6.000000
 -0.083333  0.083333  0.916667     24.000000
  0.833333 -0.833333  0.000000     12.000000
  0.000000  0.000000  1.000000      3.000000
  0.000000  0.166667  0.333333     24.000000
 -0.083333  0.250000  0.416667     48.000000
 -0.166667  0.333333  0.500000     48.000000
 -0.250000  0.416667  0.583333     48.000000
  0.666667 -0.500000 -0.333333     24.000000
  0.000000  0.166667  0.500000     24.000000
 -0.083333  0.250000  0.583333     48.000000
 -0.166667  0.333333  0.666667     48.000000
  0.750000 -0.583333 -0.250000     48.000000
  0.666667 -0.500000 -0.166667     48.000000
  0.583333 -0.416667 -0.083333     48.000000
  0.500000 -0.333333  0.000000     24.000000
  0.000000  0.166667  0.666667     24.000000
 -0.083333  0.250000  0.750000     48.000000
  0.833333 -0.666667 -0.166667     48.000000
  0.750000 -0.583333 -0.083333     48.000000
  0.666667 -0.500000  0.000000     24.000000
  0.000000  0.166667  0.833333     24.000000
  0.916667 -0.750000 -0.083333     48.000000
  0.833333 -0.666667  0.000000     24.000000
  1.000000 -0.833333  0.000000     12.000000
  0.000000  0.333333  0.666667     24.000000
  0.916667 -0.583333 -0.250000     48.000000
  0.833333 -0.500000 -0.166667     24.000000
  1.000000 -0.666667 -0.166667     24.000000
  0.916667 -0.583333 -0.083333     48.000000
  0.833333 -0.500000  0.000000     24.000000
  1.000000 -0.666667  0.000000     12.000000
  1.000000 -0.500000  0.000000      6.000000
 


--------------------------------------------------------------------------------------------------------




 Dimension of arrays:
   k-points           NKPTS =     72   k-points in BZ     NKDIM =     72   number of bands    NBANDS=      8
   number of dos      NEDOS =    301   number of ions     NIONS =      2
   non local maximal  LDIM  =      4   non local SUM 2l+1 LMDIM =      8
   total plane-waves  NPLWV =  13824
   max r-space proj   IRMAX =      1   max aug-charges    IRDMAX=  14295
   dimension x,y,z NGX =    24 NGY =   24 NGZ =   24
   dimension x,y,z NGXF=    48 NGYF=   48 NGZF=   48
   support grid    NGXF=    48 NGYF=   48 NGZF=   48
   ions per type =               2
 NGX,Y,Z   is equivalent  to a cutoff of  11.11, 11.11, 11.11 a.u.
 NGXF,Y,Z  is equivalent  to a cutoff of  22.21, 22.21, 22.21 a.u.


 I would recommend the setting:
   dimension x,y,z NGX =    22 NGY =   22 NGZ =   22
 SYSTEM =  Si
 POSCAR =  Si

 Startparameter for this run:
   NWRITE =      2    write-flag & timer
   PREC   = normal    normal or accurate (medium, high low for compatibility)
   ISTART =      0    job   : 0-new  1-cont  2-samecut
   ICHARG =      2    charge: 1-file 2-atom 10-const
   ISPIN  =      1    spin polarized calculation?
   LNONCOLLINEAR =      F non collinear calculations
   LSORBIT =      F    spin-orbit coupling
   INIWAV =      1    electr: 0-lowe 1-rand  2-diag
   LASPH  =      F    aspherical Exc in radial PAW
   METAGGA=      F    non-selfconsistent MetaGGA calc.

 Electronic Relaxation 1
   ENCUT  =  600.0 eV  44.10 Ry    6.64 a.u.   7.18  7.18  7.18*2*pi/ulx,y,z
   ENINI  =  600.0     initial cutoff
   ENAUG  = 1200.0 eV  augmentation charge cutoff
   NELM   =    500;   NELMIN=  2; NELMDL= -5     # of ELM steps 
   EDIFF  = 0.1E-09   stopping-criterion for ELM
   LREAL  =      F    real-space projection
   NLSPLINE    = F    spline interpolate recip. space projectors
   LCOMPAT=      F    compatible to vasp.4.4
   GGA_COMPAT  = T    GGA compatible to vasp.4.4-vasp.4.6
   LMAXPAW     = -100 max onsite density
   LMAXMIX     =    2 max onsite mixed and CHGCAR
   VOSKOWN=      0    Vosko Wilk Nusair interpolation
   ROPT   =    0.00000
 Ionic relaxation
   EDIFFG = 0.1E-08   stopping-criterion for IOM
   NSW    =      0    number of steps for IOM
   NBLOCK =      1;   KBLOCK =      1    inner block; outer block 
   IBRION =     -1    ionic relax: 0-MD 1-quasi-New 2-CG
   NFREE  =      0    steps in history (QN), initial steepest desc. (CG)
   ISIF   =      2    stress and relaxation
   IWAVPR =     10    prediction:  0-non 1-charg 2-wave 3-comb
   ISYM   =      2    0-nonsym 1-usesym 2-fastsym
   LCORR  =      T    Harris-Foulkes like correction to forces

   POTIM  = 0.5000    time-step for ionic-motion
   TEIN   =    0.0    initial temperature
   TEBEG  =    0.0;   TEEND  =   0.0 temperature during run
   SMASS  =  -3.00    Nose mass-parameter (am)
   estimated Nose-frequenzy (Omega)   =  0.10E-29 period in steps =****** mass=  -0.295E-27a.u.
   SCALEE = 1.0000    scale energy and forces
   NPACO  =    256;   APACO  = 16.0  distance and # of slots for P.C.
   PSTRESS=    0.0 pullay stress

  Mass of Ions in am
   POMASS =  28.09
  Ionic Valenz
   ZVAL   =   4.00
  Atomic Wigner-Seitz radii
   RWIGS  =  -1.00
  virtual crystal weights 
   VCA    =   1.00
   NELECT =       8.0000    total number of electrons
   NUPDOWN=      -1.0000    fix difference up-down

 DOS related values:
   EMIN   =  10.00;   EMAX   =-10.00  energy-range for DOS
   EFERMI =   0.00
   ISMEAR =    -1;   SIGMA  =   0.03  broadening in eV -4-tet -1-fermi 0-gaus

 Electronic relaxation 2 (details)
   IALGO  =     38    algorithm
   LDIAG  =      T    sub-space diagonalisation (order eigenvalues)
   LSUBROT=      F    optimize rotation matrix (better conditioning)
   TURBO    =      0    0=normal 1=particle mesh
   IRESTART =      0    0=no restart 2=restart with 2 vectors
   NREBOOT  =      0    no. of reboots
   NMIN     =      0    reboot dimension
   EREF     =   0.00    reference energy to select bands
   IMIX   =      4    mixing-type and parameters
     AMIX     =   0.40;   BMIX     =  1.00
     AMIX_MAG =   1.60;   BMIX_MAG =  1.00
     AMIN     =   0.10
     WC   =   100.;   INIMIX=   1;  MIXPRE=   1;  MAXMIX= -45

 Intra band minimization:
   WEIMIN = 0.0000     energy-eigenvalue tresh-hold
   EBREAK =  0.31E-11  absolut break condition
   DEPER  =   0.30     relativ break condition  

   TIME   =   0.40     timestep for ELM

  volume/ion in A,a.u.               =      16.39       110.63
  Fermi-wavevector in a.u.,A,eV,Ry     =   1.022985  1.933162 14.238486  1.046499
  Thomas-Fermi vector in A             =   2.156694
 
 Write flags
   LWAVE  =      T    write WAVECAR
   LCHARG =      T    write CHGCAR
   LVTOT  =      F    write LOCPOT, total local potential
   LVHAR  =      F    write LOCPOT, Hartree potential only
   LELF   =      F    write electronic localiz. function (ELF)
   LORBIT =      0    0 simple, 1 ext, 2 COOP (PROOUT)


 Dipole corrections
   LMONO  =      F    monopole corrections only (constant potential shift)
   LDIPOL =      F    correct potential (dipole corrections)
   IDIPOL =      0    1-x, 2-y, 3-z, 4-all directions 
   EPSILON=  1.0000000 bulk dielectric constant

 Exchange correlation treatment:
   GGA     =    PE    GGA type
   LEXCH   =     8    internal setting for exchange type
   VOSKOWN=      0    Vosko Wilk Nusair interpolation
   LHFCALC =     F    Hartree Fock is set to
   LHFONE  =     F    Hartree Fock one center treatment
   AEXX    =    0.0000 exact exchange contribution

 Linear response parameters
   LEPSILON=     F    determine dielectric tensor
   LRPA    =     F    only Hartree local field effects (RPA)
   LNABLA  =     F    use nabla operator in PAW spheres
   LVEL    =     F    velocity operator in full k-point grid
   LINTERFAST=   F  fast interpolation
   KINTER  =     0    interpolate to denser k-point grid
   CSHIFT  =0.1000    complex shift for real part using Kramers Kronig
   OMEGAMAX=  -1.0    maximum frequency
   DEG_THRESHOLD= 0.2000000E-02 threshold for treating states as degnerate
   RTIME   =    0.100 relaxation time in fs

 Orbital magnetization related:
   ORBITALMAG=     F  switch on orbital magnetization
   LCHIMAG   =     F  perturbation theory with respect to B field
   DQ        =  0.001000  dq finite difference perturbation B field



--------------------------------------------------------------------------------------------------------


 Static calculation
 charge density and potential will be updated during run
 non-spin polarized calculation
 Variant of blocked Davidson
 Davidson routine will perform the subspace rotation
 perform sub-space diagonalisation
    after iterative eigenvector-optimisation
 modified Broyden-mixing scheme, WC =      100.0
 initial mixing is a Kerker type mixing with AMIX =  0.4000 and BMIX =      1.0000
 Hartree-type preconditioning will be used
 using additional bands            4
 reciprocal scheme for non local part
 use partial core corrections
 calculate Harris-corrections to forces 
   (improved forces if not selfconsistent)
 use gradient corrections 
 use of overlap-Matrix (Vanderbilt PP)
 Fermi-smearing in eV        SIGMA  =   0.03


--------------------------------------------------------------------------------------------------------


  energy-cutoff  :      600.00
  volume of cell :       32.79
      direct lattice vectors                 reciprocal lattice vectors
     0.000000000  2.540341184  2.540341184    -0.196823955  0.196823955  0.196823955
     2.540341184  0.000000000  2.540341184     0.196823955 -0.196823955  0.196823955
     2.540341184  2.540341184  0.000000000     0.196823955  0.196823955 -0.196823955

  length of vectors
     3.592584956  3.592584956  3.592584956     0.340909091  0.340909091  0.340909091


 
 k-points in units of 2pi/SCALE and weight: Gamma centered Monkhorst-Pack           
   0.00000000  0.00000000  0.00000000       0.001
  -0.08333333  0.08333333  0.08333333       0.005
  -0.16666667  0.16666667  0.16666667       0.005
  -0.25000000  0.25000000  0.25000000       0.005
  -0.33333333  0.33333333  0.33333333       0.005
  -0.41666667  0.41666667  0.41666667       0.005
  -0.50000000  0.50000000  0.50000000       0.002
   0.00000000  0.00000000  0.16666667       0.003
  -0.08333333  0.08333333  0.25000000       0.014
  -0.16666667  0.16666667  0.33333333       0.014
  -0.25000000  0.25000000  0.41666667       0.014
  -0.33333333  0.33333333  0.50000000       0.014
  -0.41666667  0.41666667  0.58333333       0.014
   0.50000000 -0.50000000 -0.33333333       0.014
   0.41666667 -0.41666667 -0.25000000       0.014
   0.33333333 -0.33333333 -0.16666667       0.014
   0.25000000 -0.25000000 -0.08333333       0.014
   0.16666667 -0.16666667  0.00000000       0.007
   0.00000000  0.00000000  0.33333333       0.003
  -0.08333333  0.08333333  0.41666667       0.014
  -0.16666667  0.16666667  0.50000000       0.014
  -0.25000000  0.25000000  0.58333333       0.014
  -0.33333333  0.33333333  0.66666667       0.014
   0.58333333 -0.58333333 -0.25000000       0.014
   0.50000000 -0.50000000 -0.16666667       0.014
   0.41666667 -0.41666667 -0.08333333       0.014
   0.33333333 -0.33333333  0.00000000       0.007
   0.00000000  0.00000000  0.50000000       0.003
  -0.08333333  0.08333333  0.58333333       0.014
  -0.16666667  0.16666667  0.66666667       0.014
  -0.25000000  0.25000000  0.75000000       0.014
   0.66666667 -0.66666667 -0.16666667       0.014
   0.58333333 -0.58333333 -0.08333333       0.014
   0.50000000 -0.50000000  0.00000000       0.007
   0.00000000  0.00000000  0.66666667       0.003
  -0.08333333  0.08333333  0.75000000       0.014
  -0.16666667  0.16666667  0.83333333       0.014
   0.75000000 -0.75000000 -0.08333333       0.014
   0.66666667 -0.66666667  0.00000000       0.007
   0.00000000  0.00000000  0.83333333       0.003
  -0.08333333  0.08333333  0.91666667       0.014
   0.83333333 -0.83333333  0.00000000       0.007
   0.00000000  0.00000000  1.00000000       0.002
   0.00000000  0.16666667  0.33333333       0.014
  -0.08333333  0.25000000  0.41666667       0.028
  -0.16666667  0.33333333  0.50000000       0.028
  -0.25000000  0.41666667  0.58333333       0.028
   0.66666667 -0.50000000 -0.33333333       0.014
   0.00000000  0.16666667  0.50000000       0.014
  -0.08333333  0.25000000  0.58333333       0.028
  -0.16666667  0.33333333  0.66666667       0.028
   0.75000000 -0.58333333 -0.25000000       0.028
   0.66666667 -0.50000000 -0.16666667       0.028
   0.58333333 -0.41666667 -0.08333333       0.028
   0.50000000 -0.33333333  0.00000000       0.014
   0.00000000  0.16666667  0.66666667       0.014
  -0.08333333  0.25000000  0.75000000       0.028
   0.83333333 -0.66666667 -0.16666667       0.028
   0.75000000 -0.58333333 -0.08333333       0.028
   0.66666667 -0.50000000  0.00000000       0.014
   0.00000000  0.16666667  0.83333333       0.014
   0.91666667 -0.75000000 -0.08333333       0.028
   0.83333333 -0.66666667  0.00000000       0.014
   1.00000000 -0.83333333  0.00000000       0.007
   0.00000000  0.33333333  0.66666667       0.014
   0.91666667 -0.58333333 -0.25000000       0.028
   0.83333333 -0.50000000 -0.16666667       0.014
   1.00000000 -0.66666667 -0.16666667       0.014
   0.91666667 -0.58333333 -0.08333333       0.028
   0.83333333 -0.50000000  0.00000000       0.014
   1.00000000 -0.66666667  0.00000000       0.007
   1.00000000 -0.50000000  0.00000000       0.003
 
 k-points in reciprocal lattice and weights: Gamma centered Monkhorst-Pack           
   0.00000000  0.00000000  0.00000000       0.001
   0.08333333  0.00000000  0.00000000       0.005
   0.16666667  0.00000000  0.00000000       0.005
   0.25000000  0.00000000  0.00000000       0.005
   0.33333333  0.00000000  0.00000000       0.005
   0.41666667  0.00000000  0.00000000       0.005
   0.50000000  0.00000000  0.00000000       0.002
   0.08333333  0.08333333  0.00000000       0.003
   0.16666667  0.08333333  0.00000000       0.014
   0.25000000  0.08333333  0.00000000       0.014
   0.33333333  0.08333333  0.00000000       0.014
   0.41666667  0.08333333  0.00000000       0.014
   0.50000000  0.08333333  0.00000000       0.014
  -0.41666667  0.08333333  0.00000000       0.014
  -0.33333333  0.08333333  0.00000000       0.014
  -0.25000000  0.08333333  0.00000000       0.014
  -0.16666667  0.08333333  0.00000000       0.014
  -0.08333333  0.08333333  0.00000000       0.007
   0.16666667  0.16666667  0.00000000       0.003
   0.25000000  0.16666667  0.00000000       0.014
   0.33333333  0.16666667  0.00000000       0.014
   0.41666667  0.16666667  0.00000000       0.014
   0.50000000  0.16666667  0.00000000       0.014
  -0.41666667  0.16666667  0.00000000       0.014
  -0.33333333  0.16666667  0.00000000       0.014
  -0.25000000  0.16666667  0.00000000       0.014
  -0.16666667  0.16666667  0.00000000       0.007
   0.25000000  0.25000000  0.00000000       0.003
   0.33333333  0.25000000  0.00000000       0.014
   0.41666667  0.25000000  0.00000000       0.014
   0.50000000  0.25000000  0.00000000       0.014
  -0.41666667  0.25000000  0.00000000       0.014
  -0.33333333  0.25000000  0.00000000       0.014
  -0.25000000  0.25000000  0.00000000       0.007
   0.33333333  0.33333333  0.00000000       0.003
   0.41666667  0.33333333  0.00000000       0.014
   0.50000000  0.33333333  0.00000000       0.014
  -0.41666667  0.33333333  0.00000000       0.014
  -0.33333333  0.33333333  0.00000000       0.007
   0.41666667  0.41666667  0.00000000       0.003
   0.50000000  0.41666667  0.00000000       0.014
  -0.41666667  0.41666667  0.00000000       0.007
   0.50000000  0.50000000  0.00000000       0.002
   0.25000000  0.16666667  0.08333333       0.014
   0.33333333  0.16666667  0.08333333       0.028
   0.41666667  0.16666667  0.08333333       0.028
   0.50000000  0.16666667  0.08333333       0.028
  -0.41666667  0.16666667  0.08333333       0.014
   0.33333333  0.25000000  0.08333333       0.014
   0.41666667  0.25000000  0.08333333       0.028
   0.50000000  0.25000000  0.08333333       0.028
  -0.41666667  0.25000000  0.08333333       0.028
  -0.33333333  0.25000000  0.08333333       0.028
  -0.25000000  0.25000000  0.08333333       0.028
  -0.16666667  0.25000000  0.08333333       0.014
   0.41666667  0.33333333  0.08333333       0.014
   0.50000000  0.33333333  0.08333333       0.028
  -0.41666667  0.33333333  0.08333333       0.028
  -0.33333333  0.33333333  0.08333333       0.028
  -0.25000000  0.33333333  0.08333333       0.014
   0.50000000  0.41666667  0.08333333       0.014
  -0.41666667  0.41666667  0.08333333       0.028
  -0.33333333  0.41666667  0.08333333       0.014
  -0.41666667  0.50000000  0.08333333       0.007
   0.50000000  0.33333333  0.16666667       0.014
  -0.41666667  0.33333333  0.16666667       0.028
  -0.33333333  0.33333333  0.16666667       0.014
  -0.41666667  0.41666667  0.16666667       0.014
  -0.33333333  0.41666667  0.16666667       0.028
  -0.25000000  0.41666667  0.16666667       0.014
  -0.33333333  0.50000000  0.16666667       0.007
  -0.25000000  0.50000000  0.25000000       0.003
 
 position of ions in fractional coordinates (direct lattice) 
   0.00000000  0.00000000  0.00000000
   0.25000000  0.25000000  0.25000000
 
 position of ions in cartesian coordinates  (Angst):
   0.00000000  0.00000000  0.00000000
   1.27017059  1.27017059  1.27017059
 


--------------------------------------------------------------------------------------------------------


 k-point  1 :   0.0000 0.0000 0.0000  plane waves:    1067
 k-point  2 :   0.0833 0.0000 0.0000  plane waves:    1091
 k-point  3 :   0.1667 0.0000 0.0000  plane waves:    1092
 k-point  4 :   0.2500 0.0000 0.0000  plane waves:    1089
 k-point  5 :   0.3333 0.0000 0.0000  plane waves:    1089
 k-point  6 :   0.4167 0.0000 0.0000  plane waves:    1095
 k-point  7 :   0.5000 0.0000 0.0000  plane waves:    1104
 k-point  8 :   0.0833 0.0833 0.0000  plane waves:    1086
 k-point  9 :   0.1667 0.0833 0.0000  plane waves:    1093
 k-point 10 :   0.2500 0.0833 0.0000  plane waves:    1090
 k-point 11 :   0.3333 0.0833 0.0000  plane waves:    1095
 k-point 12 :   0.4167 0.0833 0.0000  plane waves:    1097
 k-point 13 :   0.5000 0.0833 0.0000  plane waves:    1096
 k-point 14 :  -0.4167 0.0833 0.0000  plane waves:    1102
 k-point 15 :  -0.3333 0.0833 0.0000  plane waves:    1099
 k-point 16 :  -0.2500 0.0833 0.0000  plane waves:    1097
 k-point 17 :  -0.1667 0.0833 0.0000  plane waves:    1092
 k-point 18 :  -0.0833 0.0833 0.0000  plane waves:    1087
 k-point 19 :   0.1667 0.1667 0.0000  plane waves:    1094
 k-point 20 :   0.2500 0.1667 0.0000  plane waves:    1089
 k-point 21 :   0.3333 0.1667 0.0000  plane waves:    1083
 k-point 22 :   0.4167 0.1667 0.0000  plane waves:    1092
 k-point 23 :   0.5000 0.1667 0.0000  plane waves:    1095
 k-point 24 :  -0.4167 0.1667 0.0000  plane waves:    1092
 k-point 25 :  -0.3333 0.1667 0.0000  plane waves:    1095
 k-point 26 :  -0.2500 0.1667 0.0000  plane waves:    1091
 k-point 27 :  -0.1667 0.1667 0.0000  plane waves:    1089
 k-point 28 :   0.2500 0.2500 0.0000  plane waves:    1094
 k-point 29 :   0.3333 0.2500 0.0000  plane waves:    1084
 k-point 30 :   0.4167 0.2500 0.0000  plane waves:    1089
 k-point 31 :   0.5000 0.2500 0.0000  plane waves:    1096
 k-point 32 :  -0.4167 0.2500 0.0000  plane waves:    1105
 k-point 33 :  -0.3333 0.2500 0.0000  plane waves:    1103
 k-point 34 :  -0.2500 0.2500 0.0000  plane waves:    1097
 k-point 35 :   0.3333 0.3333 0.0000  plane waves:    1078
 k-point 36 :   0.4167 0.3333 0.0000  plane waves:    1086
 k-point 37 :   0.5000 0.3333 0.0000  plane waves:    1100
 k-point 38 :  -0.4167 0.3333 0.0000  plane waves:    1105
 k-point 39 :  -0.3333 0.3333 0.0000  plane waves:    1113
 k-point 40 :   0.4167 0.4167 0.0000  plane waves:    1086
 k-point 41 :   0.5000 0.4167 0.0000  plane waves:    1096
 k-point 42 :  -0.4167 0.4167 0.0000  plane waves:    1106
 k-point 43 :   0.5000 0.5000 0.0000  plane waves:    1106
 k-point 44 :   0.2500 0.1667 0.0833  plane waves:    1094
 k-point 45 :   0.3333 0.1667 0.0833  plane waves:    1093
 k-point 46 :   0.4167 0.1667 0.0833  plane waves:    1089
 k-point 47 :   0.5000 0.1667 0.0833  plane waves:    1098
 k-point 48 :  -0.4167 0.1667 0.0833  plane waves:    1100
 k-point 49 :   0.3333 0.2500 0.0833  plane waves:    1093
 k-point 50 :   0.4167 0.2500 0.0833  plane waves:    1089
 k-point 51 :   0.5000 0.2500 0.0833  plane waves:    1090
 k-point 52 :  -0.4167 0.2500 0.0833  plane waves:    1099
 k-point 53 :  -0.3333 0.2500 0.0833  plane waves:    1095
 k-point 54 :  -0.2500 0.2500 0.0833  plane waves:    1094
 k-point 55 :  -0.1667 0.2500 0.0833  plane waves:    1086
 k-point 56 :   0.4167 0.3333 0.0833  plane waves:    1079
 k-point 57 :   0.5000 0.3333 0.0833  plane waves:    1088
 k-point 58 :  -0.4167 0.3333 0.0833  plane waves:    1097
 k-point 59 :  -0.3333 0.3333 0.0833  plane waves:    1102
 k-point 60 :  -0.2500 0.3333 0.0833  plane waves:    1100
 k-point 61 :   0.5000 0.4167 0.0833  plane waves:    1090
 k-point 62 :  -0.4167 0.4167 0.0833  plane waves:    1100
 k-point 63 :  -0.3333 0.4167 0.0833  plane waves:    1100
 k-point 64 :  -0.4167 0.5000 0.0833  plane waves:    1096
 k-point 65 :   0.5000 0.3333 0.1667  plane waves:    1094
 k-point 66 :  -0.4167 0.3333 0.1667  plane waves:    1095
 k-point 67 :  -0.3333 0.3333 0.1667  plane waves:    1090
 k-point 68 :  -0.4167 0.4167 0.1667  plane waves:    1099
 k-point 69 :  -0.3333 0.4167 0.1667  plane waves:    1098
 k-point 70 :  -0.2500 0.4167 0.1667  plane waves:    1102
 k-point 71 :  -0.3333 0.5000 0.1667  plane waves:    1098
 k-point 72 :  -0.2500 0.5000 0.2500  plane waves:    1084

 maximum and minimum number of plane-waves per node :      1113     1067

 maximum number of plane-waves:      1113
 maximum index in each direction: 
   IXMAX=    7   IYMAX=    7   IZMAX=    7
   IXMIN=   -7   IYMIN=   -7   IZMIN=   -7

 WARNING: aliasing errors must be expected set NGX to  30 to avoid them
 WARNING: aliasing errors must be expected set NGY to  30 to avoid them
 WARNING: aliasing errors must be expected set NGZ to  30 to avoid them
 aliasing errors are usually negligible using standard VASP settings
 and one can safely disregard these warnings

 serial   3D FFT for wavefunctions
 parallel 3D FFT for charge:
    minimum data exchange during FFTs selected (reduces bandwidth)


 total amount of memory used by VASP on root node    40743. kBytes
========================================================================

   base      :      30000. kBytes
   nonl-proj :       5178. kBytes
   fftplans  :       1025. kBytes
   grid      :       1926. kBytes
   one-center:          6. kBytes
   wavefun   :       2608. kBytes
 
     INWAV:  cpu time    0.00: real time    0.00
 Broyden mixing: mesh for mixing (old mesh)
   NGX = 15   NGY = 15   NGZ = 15
  (NGX  = 48   NGY  = 48   NGZ  = 48)
  gives a total of   3375 points

 initial charge density was supplied:
 charge density of overlapping atoms calculated
 number of electron       8.0000000 magnetization 
 keeping initial charge density in first step


--------------------------------------------------------------------------------------------------------


 Maximum index for augmentation-charges         3363 (set IRDMAX)


--------------------------------------------------------------------------------------------------------


 First call to EWALD:  gamma=   0.554
 Maximum number of real-space cells 3x 3x 3
 Maximum number of reciprocal cells 3x 3x 3

 FEWALD executed in parallel
    FEWALD:  cpu time    0.00: real time    0.00


----------------------------------------- Iteration    1(   1)  ---------------------------------------


    POTLOK:  cpu time    0.01: real time    0.01
    SETDIJ:  cpu time    0.00: real time    0.00
     EDDAV:  cpu time    0.22: real time    0.23
       DOS:  cpu time    0.00: real time    0.00
    --------------------------------------------
      LOOP:  cpu time    0.24: real time    0.25

 eigenvalue-minimisations  :  1152
 total energy-change (2. order) : 0.1089134E+02  (-0.3812714E+03)
 number of electron       8.0000000 magnetization 
 augmentation part        8.0000000 magnetization 

 Free energy of the ion-electron system (eV)
  ---------------------------------------------------
  alpha Z        PSCENC =         4.10683899
  Ewald energy   TEWEN  =      -244.27819931
  -Hartree energ DENC   =        -8.21628302
  -exchange      EXHF   =         0.00000000
  -V(xc)+E(xc)   XCENC  =       -17.77066026
  PAW double counting   =        65.95520812      -30.76852678
  entropy T*S    EENTRO =        -0.00213691
  eigenvalues    EBANDS =        35.73198359
  atomic energy  EATOM  =       206.13311910
  ---------------------------------------------------
  free energy    TOTEN  =        10.89134352 eV

  energy without entropy =       10.89348042  energy(sigma->0) =       10.89241197


--------------------------------------------------------------------------------------------------------




----------------------------------------- Iteration    1(   2)  ---------------------------------------


     EDDAV:  cpu time    0.32: real time    0.34
       DOS:  cpu time    0.00: real time    0.00
    --------------------------------------------
      LOOP:  cpu time    0.32: real time    0.34

 eigenvalue-minimisations  :  1784
 total energy-change (2. order) :-0.2117554E+02  (-0.2043527E+02)
 number of electron       8.0000000 magnetization 
 augmentation part        8.0000000 magnetization 

 Free energy of the ion-electron system (eV)
  ---------------------------------------------------
  alpha Z        PSCENC =         4.10683899
  Ewald energy   TEWEN  =      -244.27819931
  -Hartree energ DENC   =        -8.21628302
  -exchange      EXHF   =         0.00000000
  -V(xc)+E(xc)   XCENC  =       -17.77066026
  PAW double counting   =        65.95520812      -30.76852678
  entropy T*S    EENTRO =        -0.00000005
  eigenvalues    EBANDS =        14.55430689
  atomic energy  EATOM  =       206.13311910
  ---------------------------------------------------
  free energy    TOTEN  =       -10.28419633 eV

  energy without entropy =      -10.28419627  energy(sigma->0) =      -10.28419630


--------------------------------------------------------------------------------------------------------




----------------------------------------- Iteration    1(   3)  ---------------------------------------


     EDDAV:  cpu time    0.25: real time    0.26
       DOS:  cpu time    0.00: real time    0.00
    --------------------------------------------
      LOOP:  cpu time    0.26: real time    0.27

 eigenvalue-minimisations  :  1368
 total energy-change (2. order) :-0.2374817E+00  (-0.2374817E+00)
 number of electron       8.0000000 magnetization 
 augmentation part        8.0000000 magnetization 

 Free energy of the ion-electron system (eV)
  ---------------------------------------------------
  alpha Z        PSCENC =         4.10683899
  Ewald energy   TEWEN  =      -244.27819931
  -Hartree energ DENC   =        -8.21628302
  -exchange      EXHF   =         0.00000000
  -V(xc)+E(xc)   XCENC  =       -17.77066026
  PAW double counting   =        65.95520812      -30.76852678
  entropy T*S    EENTRO =        -0.00000002
  eigenvalues    EBANDS =        14.31682515
  atomic energy  EATOM  =       206.13311910
  ---------------------------------------------------
  free energy    TOTEN  =       -10.52167804 eV

  energy without entropy =      -10.52167802  energy(sigma->0) =      -10.52167803


--------------------------------------------------------------------------------------------------------




----------------------------------------- Iteration    1(   4)  ---------------------------------------


     EDDAV:  cpu time    0.34: real time    0.36
       DOS:  cpu time    0.00: real time    0.00
    --------------------------------------------
      LOOP:  cpu time    0.34: real time    0.37

 eigenvalue-minimisations  :  1920
 total energy-change (2. order) :-0.1113169E-02  (-0.1113170E-02)
 number of electron       8.0000000 magnetization 
 augmentation part        8.0000000 magnetization 

 Free energy of the ion-electron system (eV)
  ---------------------------------------------------
  alpha Z        PSCENC =         4.10683899
  Ewald energy   TEWEN  =      -244.27819931
  -Hartree energ DENC   =        -8.21628302
  -exchange      EXHF   =         0.00000000
  -V(xc)+E(xc)   XCENC  =       -17.77066026
  PAW double counting   =        65.95520812      -30.76852678
  entropy T*S    EENTRO =        -0.00000002
  eigenvalues    EBANDS =        14.31571198
  atomic energy  EATOM  =       206.13311910
  ---------------------------------------------------
  free energy    TOTEN  =       -10.52279121 eV

  energy without entropy =      -10.52279119  energy(sigma->0) =      -10.52279120


--------------------------------------------------------------------------------------------------------




----------------------------------------- Iteration    1(   5)  ---------------------------------------


     EDDAV:  cpu time    0.27: real time    0.28
       DOS:  cpu time    0.00: real time    0.00
    CHARGE:  cpu time    0.02: real time    0.02
    MIXING:  cpu time    0.00: real time    0.00
    --------------------------------------------
      LOOP:  cpu time    0.29: real time    0.30

 eigenvalue-minimisations  :  1440
 total energy-change (2. order) :-0.1104098E-05  (-0.1102862E-05)
 number of electron       7.9999999 magnetization 
 augmentation part       -0.4890025 magnetization 

 Broyden mixing:
  rms(total) = 0.35411E+00    rms(broyden)= 0.35411E+00
  rms(prec ) = 0.10800E+01
  weight for this iteration     100.00

 Free energy of the ion-electron system (eV)
  ---------------------------------------------------
  alpha Z        PSCENC =         4.10683899
  Ewald energy   TEWEN  =      -244.27819931
  -Hartree energ DENC   =        -8.21628302
  -exchange      EXHF   =         0.00000000
  -V(xc)+E(xc)   XCENC  =       -17.77066026
  PAW double counting   =        65.95520812      -30.76852678
  entropy T*S    EENTRO =        -0.00000002
  eigenvalues    EBANDS =        14.31571088
  atomic energy  EATOM  =       206.13311910
  ---------------------------------------------------
  free energy    TOTEN  =       -10.52279231 eV

  energy without entropy =      -10.52279229  energy(sigma->0) =      -10.52279230


--------------------------------------------------------------------------------------------------------




----------------------------------------- Iteration    1(   6)  ---------------------------------------


    POTLOK:  cpu time    0.01: real time    0.01
    SETDIJ:  cpu time    0.00: real time    0.00
     EDDAV:  cpu time    0.30: real time    0.34
       DOS:  cpu time    0.00: real time    0.00
    CHARGE:  cpu time    0.02: real time    0.02
    MIXING:  cpu time    0.00: real time    0.00
    --------------------------------------------
      LOOP:  cpu time    0.33: real time    0.37

 eigenvalue-minimisations  :  1256
 total energy-change (2. order) : 0.2317806E+00  (-0.1701001E-01)
 number of electron       7.9999999 magnetization 
 augmentation part       -0.4800948 magnetization 

 Broyden mixing:
  rms(total) = 0.20306E+00    rms(broyden)= 0.20306E+00
  rms(prec ) = 0.61153E+00
  weight for this iteration     100.00

 eigenvalues of (default mixing * dielectric matrix)
  average eigenvalue GAMMA=   2.3222
  2.3222

 Free energy of the ion-electron system (eV)
  ---------------------------------------------------
  alpha Z        PSCENC =         4.10683899
  Ewald energy   TEWEN  =      -244.27819931
  -Hartree energ DENC   =        -9.97657344
  -exchange      EXHF   =         0.00000000
  -V(xc)+E(xc)   XCENC  =       -17.48099360
  PAW double counting   =        73.23396003      -38.25150634
  entropy T*S    EENTRO =        -0.00000122
  eigenvalues    EBANDS =        16.22234412
  atomic energy  EATOM  =       206.13311910
  ---------------------------------------------------
  free energy    TOTEN  =       -10.29101167 eV

  energy without entropy =      -10.29101045  energy(sigma->0) =      -10.29101106


--------------------------------------------------------------------------------------------------------




----------------------------------------- Iteration    1(   7)  ---------------------------------------


    POTLOK:  cpu time    0.01: real time    0.01
    SETDIJ:  cpu time    0.00: real time    0.00
     EDDAV:  cpu time    0.27: real time    0.28
       DOS:  cpu time    0.00: real time    0.00
    CHARGE:  cpu time    0.02: real time    0.03
    MIXING:  cpu time    0.00: real time    0.00
    --------------------------------------------
      LOOP:  cpu time    0.30: real time    0.33

 eigenvalue-minimisations  :  1448
 total energy-change (2. order) : 0.9399858E-01  (-0.2604474E-01)
 number of electron       7.9999999 magnetization 
 augmentation part       -0.4698924 magnetization 

 Broyden mixing:
  rms(total) = 0.19493E-01    rms(broyden)= 0.19493E-01
  rms(prec ) = 0.51548E-01
  weight for this iteration     100.00

 eigenvalues of (default mixing * dielectric matrix)
  average eigenvalue GAMMA=   2.4070
  2.4070  2.4070

 Free energy of the ion-electron system (eV)
  ---------------------------------------------------
  alpha Z        PSCENC =         4.10683899
  Ewald energy   TEWEN  =      -244.27819931
  -Hartree energ DENC   =       -12.60091440
  -exchange      EXHF   =         0.00000000
  -V(xc)+E(xc)   XCENC  =       -17.04065438
  PAW double counting   =        83.11177059      -48.39042828
  entropy T*S    EENTRO =        -0.00007844
  eigenvalues    EBANDS =        18.76153304
  atomic energy  EATOM  =       206.13311910
  ---------------------------------------------------
  free energy    TOTEN  =       -10.19701309 eV

  energy without entropy =      -10.19693465  energy(sigma->0) =      -10.19697387


--------------------------------------------------------------------------------------------------------




----------------------------------------- Iteration    1(   8)  ---------------------------------------


    POTLOK:  cpu time    0.01: real time    0.01
    SETDIJ:  cpu time    0.00: real time    0.00
     EDDAV:  cpu time    0.26: real time    0.27
       DOS:  cpu time    0.00: real time    0.00
    CHARGE:  cpu time    0.02: real time    0.02
    MIXING:  cpu time    0.00: real time    0.00
    --------------------------------------------
      LOOP:  cpu time    0.29: real time    0.31

 eigenvalue-minimisations  :  1376
 total energy-change (2. order) :-0.1352385E-02  (-0.5823610E-03)
 number of electron       7.9999999 magnetization 
 augmentation part       -0.4711004 magnetization 

 Broyden mixing:
  rms(total) = 0.26720E-02    rms(broyden)= 0.26720E-02
  rms(prec ) = 0.91236E-02
  weight for this iteration     100.00

 eigenvalues of (default mixing * dielectric matrix)
  average eigenvalue GAMMA=   2.0811
  1.4297  2.7466  2.0669

 Free energy of the ion-electron system (eV)
  ---------------------------------------------------
  alpha Z        PSCENC =         4.10683899
  Ewald energy   TEWEN  =      -244.27819931
  -Hartree energ DENC   =       -12.57837023
  -exchange      EXHF   =         0.00000000
  -V(xc)+E(xc)   XCENC  =       -17.01839640
  PAW double counting   =        82.39852978      -47.65016065
  entropy T*S    EENTRO =        -0.00005473
  eigenvalues    EBANDS =        18.68832797
  atomic energy  EATOM  =       206.13311910
  ---------------------------------------------------
  free energy    TOTEN  =       -10.19836548 eV

  energy without entropy =      -10.19831074  energy(sigma->0) =      -10.19833811


--------------------------------------------------------------------------------------------------------




----------------------------------------- Iteration    1(   9)  ---------------------------------------


    POTLOK:  cpu time    0.01: real time    0.02
    SETDIJ:  cpu time    0.00: real time    0.00
     EDDAV:  cpu time    0.33: real time    0.35
       DOS:  cpu time    0.00: real time    0.00
    CHARGE:  cpu time    0.02: real time    0.02
    MIXING:  cpu time    0.00: real time    0.00
    --------------------------------------------
      LOOP:  cpu time    0.36: real time    0.39

 eigenvalue-minimisations  :  1800
 total energy-change (2. order) :-0.5718743E-04  (-0.9112293E-05)
 number of electron       7.9999999 magnetization 
 augmentation part       -0.4710919 magnetization 

 Broyden mixing:
  rms(total) = 0.15509E-02    rms(broyden)= 0.15509E-02
  rms(prec ) = 0.36801E-02
  weight for this iteration     100.00

 eigenvalues of (default mixing * dielectric matrix)
  average eigenvalue GAMMA=   2.1352
  0.9830  2.8900  2.4802  2.1875

 Free energy of the ion-electron system (eV)
  ---------------------------------------------------
  alpha Z        PSCENC =         4.10683899
  Ewald energy   TEWEN  =      -244.27819931
  -Hartree energ DENC   =       -12.62057775
  -exchange      EXHF   =         0.00000000
  -V(xc)+E(xc)   XCENC  =       -17.01071147
  PAW double counting   =        82.47636479      -47.73025416
  entropy T*S    EENTRO =        -0.00005564
  eigenvalues    EBANDS =        18.72505278
  atomic energy  EATOM  =       206.13311910
  ---------------------------------------------------
  free energy    TOTEN  =       -10.19842266 eV

  energy without entropy =      -10.19836702  energy(sigma->0) =      -10.19839484


--------------------------------------------------------------------------------------------------------




----------------------------------------- Iteration    1(  10)  ---------------------------------------


    POTLOK:  cpu time    0.01: real time    0.02
    SETDIJ:  cpu time    0.00: real time    0.00
     EDDAV:  cpu time    0.26: real time    0.29
       DOS:  cpu time    0.00: real time    0.00
    CHARGE:  cpu time    0.02: real time    0.02
    MIXING:  cpu time    0.00: real time    0.00
    --------------------------------------------
      LOOP:  cpu time    0.30: real time    0.33

 eigenvalue-minimisations  :  1416
 total energy-change (2. order) :-0.1455479E-04  (-0.1869034E-05)
 number of electron       7.9999999 magnetization 
 augmentation part       -0.4710589 magnetization 

 Broyden mixing:
  rms(total) = 0.14291E-03    rms(broyden)= 0.14291E-03
  rms(prec ) = 0.38076E-03
  weight for this iteration     100.00

 eigenvalues of (default mixing * dielectric matrix)
  average eigenvalue GAMMA=   1.9691
  3.0243  2.5785  2.1194  0.9964  1.1268

 Free energy of the ion-electron system (eV)
  ---------------------------------------------------
  alpha Z        PSCENC =         4.10683899
  Ewald energy   TEWEN  =      -244.27819931
  -Hartree energ DENC   =       -12.62713018
  -exchange      EXHF   =         0.00000000
  -V(xc)+E(xc)   XCENC  =       -17.01091245
  PAW double counting   =        82.43213221      -47.68597458
  entropy T*S    EENTRO =        -0.00005498
  eigenvalues    EBANDS =        18.73174397
  atomic energy  EATOM  =       206.13311910
  ---------------------------------------------------
  free energy    TOTEN  =       -10.19843722 eV

  energy without entropy =      -10.19838224  energy(sigma->0) =      -10.19840973


--------------------------------------------------------------------------------------------------------




----------------------------------------- Iteration    1(  11)  ---------------------------------------


    POTLOK:  cpu time    0.01: real time    0.02
    SETDIJ:  cpu time    0.00: real time    0.00
     EDDAV:  cpu time    0.33: real time    0.35
       DOS:  cpu time    0.00: real time    0.00
    CHARGE:  cpu time    0.02: real time    0.02
    MIXING:  cpu time    0.00: real time    0.00
    --------------------------------------------
      LOOP:  cpu time    0.36: real time    0.39

 eigenvalue-minimisations  :  1784
 total energy-change (2. order) : 0.3994676E-06  (-0.3505018E-07)
 number of electron       7.9999999 magnetization 
 augmentation part       -0.4710698 magnetization 

 Broyden mixing:
  rms(total) = 0.53299E-04    rms(broyden)= 0.53299E-04
  rms(prec ) = 0.10023E-03
  weight for this iteration     100.00

 eigenvalues of (default mixing * dielectric matrix)
  average eigenvalue GAMMA=   2.0856
  3.0766  2.7336  2.5793  2.1233  0.9832  1.0176

 Free energy of the ion-electron system (eV)
  ---------------------------------------------------
  alpha Z        PSCENC =         4.10683899
  Ewald energy   TEWEN  =      -244.27819931
  -Hartree energ DENC   =       -12.62566755
  -exchange      EXHF   =         0.00000000
  -V(xc)+E(xc)   XCENC  =       -17.01104929
  PAW double counting   =        82.42416740      -47.67768326
  entropy T*S    EENTRO =        -0.00005476
  eigenvalues    EBANDS =        18.73009187
  atomic energy  EATOM  =       206.13311910
  ---------------------------------------------------
  free energy    TOTEN  =       -10.19843682 eV

  energy without entropy =      -10.19838206  energy(sigma->0) =      -10.19840944


--------------------------------------------------------------------------------------------------------




----------------------------------------- Iteration    1(  12)  ---------------------------------------


    POTLOK:  cpu time    0.02: real time    0.02
    SETDIJ:  cpu time    0.00: real time    0.00
     EDDAV:  cpu time    0.27: real time    0.29
       DOS:  cpu time    0.00: real time    0.00
    CHARGE:  cpu time    0.02: real time    0.07
    MIXING:  cpu time    0.00: real time    0.00
    --------------------------------------------
      LOOP:  cpu time    0.31: real time    0.39

 eigenvalue-minimisations  :  1440
 total energy-change (2. order) : 0.5394639E-08  (-0.2426018E-08)
 number of electron       7.9999999 magnetization 
 augmentation part       -0.4710675 magnetization 

 Broyden mixing:
  rms(total) = 0.43801E-05    rms(broyden)= 0.43801E-05
  rms(prec ) = 0.12376E-04
  weight for this iteration     100.00

 eigenvalues of (default mixing * dielectric matrix)
  average eigenvalue GAMMA=   1.9654
  3.1314  2.6643  2.4456  2.1612  0.9776  1.0411  1.3364

 Free energy of the ion-electron system (eV)
  ---------------------------------------------------
  alpha Z        PSCENC =         4.10683899
  Ewald energy   TEWEN  =      -244.27819931
  -Hartree energ DENC   =       -12.62600394
  -exchange      EXHF   =         0.00000000
  -V(xc)+E(xc)   XCENC  =       -17.01104070
  PAW double counting   =        82.42716763      -47.68066010
  entropy T*S    EENTRO =        -0.00005477
  eigenvalues    EBANDS =        18.73039629
  atomic energy  EATOM  =       206.13311910
  ---------------------------------------------------
  free energy    TOTEN  =       -10.19843681 eV

  energy without entropy =      -10.19838204  energy(sigma->0) =      -10.19840943


--------------------------------------------------------------------------------------------------------




----------------------------------------- Iteration    1(  13)  ---------------------------------------


    POTLOK:  cpu time    0.01: real time    0.02
    SETDIJ:  cpu time    0.00: real time    0.00
     EDDAV:  cpu time    0.37: real time    0.40
       DOS:  cpu time    0.00: real time    0.00
    CHARGE:  cpu time    0.02: real time    0.02
    MIXING:  cpu time    0.00: real time    0.00
    --------------------------------------------
      LOOP:  cpu time    0.40: real time    0.44

 eigenvalue-minimisations  :  1856
 total energy-change (2. order) : 0.7753357E-08  (-0.3203395E-10)
 number of electron       7.9999999 magnetization 
 augmentation part       -0.4710678 magnetization 

 Broyden mixing:
  rms(total) = 0.15771E-05    rms(broyden)= 0.15771E-05
  rms(prec ) = 0.24915E-05
  weight for this iteration     100.00

 eigenvalues of (default mixing * dielectric matrix)
  average eigenvalue GAMMA=   2.0222
  3.1391  2.1325  2.7266  2.7266  2.4732  1.0015  1.0015  0.9761

 Free energy of the ion-electron system (eV)
  ---------------------------------------------------
  alpha Z        PSCENC =         4.10683899
  Ewald energy   TEWEN  =      -244.27819931
  -Hartree energ DENC   =       -12.62595270
  -exchange      EXHF   =         0.00000000
  -V(xc)+E(xc)   XCENC  =       -17.01104460
  PAW double counting   =        82.42682902      -47.68031653
  entropy T*S    EENTRO =        -0.00005477
  eigenvalues    EBANDS =        18.73034399
  atomic energy  EATOM  =       206.13311910
  ---------------------------------------------------
  free energy    TOTEN  =       -10.19843681 eV

  energy without entropy =      -10.19838204  energy(sigma->0) =      -10.19840942


--------------------------------------------------------------------------------------------------------




----------------------------------------- Iteration    1(  14)  ---------------------------------------


    POTLOK:  cpu time    0.02: real time    0.01
    SETDIJ:  cpu time    0.00: real time    0.00
     EDDAV:  cpu time    0.23: real time    0.25
       DOS:  cpu time    0.00: real time    0.00
    CHARGE:  cpu time    0.02: real time    0.02
    MIXING:  cpu time    0.00: real time    0.00
    --------------------------------------------
      LOOP:  cpu time    0.26: real time    0.28

 eigenvalue-minimisations  :  1088
 total energy-change (2. order) :-0.2745253E-08  (-0.3510386E-11)
 number of electron       7.9999999 magnetization 
 augmentation part       -0.4710677 magnetization 

 Broyden mixing:
  rms(total) = 0.14063E-06    rms(broyden)= 0.14062E-06
  rms(prec ) = 0.31173E-06
  weight for this iteration     100.00

 eigenvalues of (default mixing * dielectric matrix)
  average eigenvalue GAMMA=   1.8892
  3.1254  2.1338  2.8061  2.6518  2.4959  1.0040  1.0040  0.9828  0.7986

 Free energy of the ion-electron system (eV)
  ---------------------------------------------------
  alpha Z        PSCENC =         4.10683899
  Ewald energy   TEWEN  =      -244.27819931
  -Hartree energ DENC   =       -12.62595632
  -exchange      EXHF   =         0.00000000
  -V(xc)+E(xc)   XCENC  =       -17.01104379
  PAW double counting   =        82.42678071      -47.68027196
  entropy T*S    EENTRO =        -0.00005477
  eigenvalues    EBANDS =        18.73035054
  atomic energy  EATOM  =       206.13311910
  ---------------------------------------------------
  free energy    TOTEN  =       -10.19843681 eV

  energy without entropy =      -10.19838204  energy(sigma->0) =      -10.19840942


--------------------------------------------------------------------------------------------------------




----------------------------------------- Iteration    1(  15)  ---------------------------------------


    POTLOK:  cpu time    0.01: real time    0.01
    SETDIJ:  cpu time    0.00: real time    0.00
     EDDAV:  cpu time    0.21: real time    0.23
       DOS:  cpu time    0.00: real time    0.00
    CHARGE:  cpu time    0.02: real time    0.02
    MIXING:  cpu time    0.00: real time    0.00
    --------------------------------------------
      LOOP:  cpu time    0.24: real time    0.27

 eigenvalue-minimisations  :   928
 total energy-change (2. order) :-0.9735857E-09  (-0.3449823E-13)
 number of electron       7.9999999 magnetization 
 augmentation part       -0.4710677 magnetization 

 Broyden mixing:
  rms(total) = 0.38663E-07    rms(broyden)= 0.38662E-07
  rms(prec ) = 0.61156E-07
  weight for this iteration     100.00

 eigenvalues of (default mixing * dielectric matrix)
  average eigenvalue GAMMA=   1.9742
  3.1052  2.1317  2.8116  2.6077  2.6077  2.4982  1.0119  0.9891  0.9893  0.9893

 Free energy of the ion-electron system (eV)
  ---------------------------------------------------
  alpha Z        PSCENC =         4.10683899
  Ewald energy   TEWEN  =      -244.27819931
  -Hartree energ DENC   =       -12.62595573
  -exchange      EXHF   =         0.00000000
  -V(xc)+E(xc)   XCENC  =       -17.01104396
  PAW double counting   =        82.42678117      -47.68027266
  entropy T*S    EENTRO =        -0.00005477
  eigenvalues    EBANDS =        18.73035035
  atomic energy  EATOM  =       206.13311910
  ---------------------------------------------------
  free energy    TOTEN  =       -10.19843681 eV

  energy without entropy =      -10.19838204  energy(sigma->0) =      -10.19840942


--------------------------------------------------------------------------------------------------------




----------------------------------------- Iteration    1(  16)  ---------------------------------------


    POTLOK:  cpu time    0.01: real time    0.02
    SETDIJ:  cpu time    0.00: real time    0.00
     EDDAV:  cpu time    0.18: real time    0.20
       DOS:  cpu time    0.00: real time    0.00
    CHARGE:  cpu time    0.02: real time    0.02
    MIXING:  cpu time    0.00: real time    0.00
    --------------------------------------------
      LOOP:  cpu time    0.22: real time    0.24

 eigenvalue-minimisations  :   784
 total energy-change (2. order) : 0.8902816E-09  (-0.7217853E-13)
 number of electron       7.9999999 magnetization 
 augmentation part       -0.4710677 magnetization 

 Broyden mixing:
  rms(total) = 0.91254E-08    rms(broyden)= 0.91222E-08
  rms(prec ) = 0.24120E-07
  weight for this iteration     100.00

 eigenvalues of (default mixing * dielectric matrix)
  average eigenvalue GAMMA=   1.8954
  3.1191  2.1332  2.9055  2.7107  2.6360  2.4995  1.0056  0.9829  0.9829  0.9372
  0.9372

 Free energy of the ion-electron system (eV)
  ---------------------------------------------------
  alpha Z        PSCENC =         4.10683899
  Ewald energy   TEWEN  =      -244.27819931
  -Hartree energ DENC   =       -12.62595570
  -exchange      EXHF   =         0.00000000
  -V(xc)+E(xc)   XCENC  =       -17.01104397
  PAW double counting   =        82.42678351      -47.68027492
  entropy T*S    EENTRO =        -0.00005477
  eigenvalues    EBANDS =        18.73035026
  atomic energy  EATOM  =       206.13311910
  ---------------------------------------------------
  free energy    TOTEN  =       -10.19843681 eV

  energy without entropy =      -10.19838204  energy(sigma->0) =      -10.19840942


--------------------------------------------------------------------------------------------------------




----------------------------------------- Iteration    1(  17)  ---------------------------------------


    POTLOK:  cpu time    0.01: real time    0.01
    SETDIJ:  cpu time    0.00: real time    0.00
     EDDAV:  cpu time    0.18: real time    0.19
       DOS:  cpu time    0.00: real time    0.00
    CHARGE:  cpu time    0.02: real time    0.02
    MIXING:  cpu time    0.00: real time    0.00
    --------------------------------------------
      LOOP:  cpu time    0.21: real time    0.23

 eigenvalue-minimisations  :   776
 total energy-change (2. order) : 0.1872991E-09  (-0.4258360E-13)
 number of electron       7.9999999 magnetization 
 augmentation part       -0.4710677 magnetization 

 Broyden mixing:
  rms(total) = 0.18380E-08    rms(broyden)= 0.18220E-08
  rms(prec ) = 0.34213E-08
  weight for this iteration     100.00

 eigenvalues of (default mixing * dielectric matrix)
  average eigenvalue GAMMA=   1.8427
  3.1181  2.8771  2.1331  2.6977  2.6116  2.5083  1.0105  0.9833  0.9833  0.9601
  1.1145  1.1145

 Free energy of the ion-electron system (eV)
  ---------------------------------------------------
  alpha Z        PSCENC =         4.10683899
  Ewald energy   TEWEN  =      -244.27819931
  -Hartree energ DENC   =       -12.62595566
  -exchange      EXHF   =         0.00000000
  -V(xc)+E(xc)   XCENC  =       -17.01104398
  PAW double counting   =        82.42678324      -47.68027464
  entropy T*S    EENTRO =        -0.00005477
  eigenvalues    EBANDS =        18.73035021
  atomic energy  EATOM  =       206.13311910
  ---------------------------------------------------
  free energy    TOTEN  =       -10.19843681 eV

  energy without entropy =      -10.19838204  energy(sigma->0) =      -10.19840942


--------------------------------------------------------------------------------------------------------




----------------------------------------- Iteration    1(  18)  ---------------------------------------


    POTLOK:  cpu time    0.01: real time    0.01
    SETDIJ:  cpu time    0.00: real time    0.00
     EDDAV:  cpu time    0.17: real time    0.22
       DOS:  cpu time    0.00: real time    0.00
    CHARGE:  cpu time    0.02: real time    0.02
    MIXING:  cpu time    0.00: real time    0.00
    --------------------------------------------
      LOOP:  cpu time    0.20: real time    0.26

 eigenvalue-minimisations  :   696
 total energy-change (2. order) :-0.9309815E-09  (-0.1043836E-13)
 number of electron       7.9999999 magnetization 
 augmentation part       -0.4710677 magnetization 

 Broyden mixing:
  rms(total) = 0.95731E-09    rms(broyden)= 0.92601E-09
  rms(prec ) = 0.22757E-08
  weight for this iteration     100.00

 eigenvalues of (default mixing * dielectric matrix)
  average eigenvalue GAMMA=   1.9014
  3.0854  3.0854  2.1331  2.7827  2.5954  2.5954  2.5022  0.9887  0.9887  1.0097
  1.0097  1.0814  0.8605

 Free energy of the ion-electron system (eV)
  ---------------------------------------------------
  alpha Z        PSCENC =         4.10683899
  Ewald energy   TEWEN  =      -244.27819931
  -Hartree energ DENC   =       -12.62595566
  -exchange      EXHF   =         0.00000000
  -V(xc)+E(xc)   XCENC  =       -17.01104397
  PAW double counting   =        82.42678325      -47.68027465
  entropy T*S    EENTRO =        -0.00005477
  eigenvalues    EBANDS =        18.73035021
  atomic energy  EATOM  =       206.13311910
  ---------------------------------------------------
  free energy    TOTEN  =       -10.19843681 eV

  energy without entropy =      -10.19838204  energy(sigma->0) =      -10.19840942


--------------------------------------------------------------------------------------------------------




----------------------------------------- Iteration    1(  19)  ---------------------------------------


    POTLOK:  cpu time    0.01: real time    0.02
    SETDIJ:  cpu time    0.00: real time    0.00
     EDDAV:  cpu time    0.21: real time    0.23
       DOS:  cpu time    0.00: real time    0.00
    --------------------------------------------
      LOOP:  cpu time    0.22: real time    0.25

 eigenvalue-minimisations  :   720
 total energy-change (2. order) : 0.3990408E-10  ( 0.6818292E-13)
 number of electron       7.9999999 magnetization 
 augmentation part       -0.4710677 magnetization 

 Free energy of the ion-electron system (eV)
  ---------------------------------------------------
  alpha Z        PSCENC =         4.10683899
  Ewald energy   TEWEN  =      -244.27819931
  -Hartree energ DENC   =       -12.62595566
  -exchange      EXHF   =         0.00000000
  -V(xc)+E(xc)   XCENC  =       -17.01104397
  PAW double counting   =        82.42678323      -47.68027462
  entropy T*S    EENTRO =        -0.00005477
  eigenvalues    EBANDS =        18.73035021
  atomic energy  EATOM  =       206.13311910
  ---------------------------------------------------
  free energy    TOTEN  =       -10.19843681 eV

  energy without entropy =      -10.19838204  energy(sigma->0) =      -10.19840942


--------------------------------------------------------------------------------------------------------




 average (electrostatic) potential at core
  the test charge radii are     0.9892
  (the norm of the test charge is              1.0000)
       1 -80.8664       2 -80.8664
 
 
 
 E-fermi :   8.1064     XC(G=0): -10.2117     alpha+bet :-14.6303


 k-point     1 :       0.0000    0.0000    0.0000
  band No.  band energies     occupation 
      1      -5.4149      2.00000
      2       8.0431      1.85313
      3       8.0431      1.85313
      4       8.0431      1.85313
      5      10.6631      0.00000
      6      10.6631      0.00000
      7      10.6631      0.00000
      8      13.8645      0.00000

 k-point     2 :       0.0833    0.0000    0.0000
  band No.  band energies     occupation 
      1      -5.3073      2.00000
      2       7.1295      2.00000
      3       7.8659      1.99987
      4       7.8659      1.99987
      5      10.9096      0.00000
      6      10.9236      0.00000
      7      10.9236      0.00000
      8      14.3357      0.00000

 k-point     3 :       0.1667    0.0000    0.0000
  band No.  band energies     occupation 
      1      -4.9870      2.00000
      2       5.4332      2.00000
      3       7.5032      2.00000
      4       7.5032      2.00000
      5      10.9239      0.00000
      6      11.4273      0.00000
      7      11.4273      0.00000
      8      15.0879      0.00000

 k-point     4 :       0.2500    0.0000    0.0000
  band No.  band energies     occupation 
      1      -4.4638      2.00000
      2       3.6632      2.00000
      3       7.1514      2.00000
      4       7.1514      2.00000
      5      10.7103      0.00000
      6      11.6677      0.00000
      7      11.6677      0.00000
      8      15.2946      0.00000

 k-point     5 :       0.3333    0.0000    0.0000
  band No.  band energies     occupation 
      1      -3.7646      2.00000
      2       2.0206      2.00000
      3       6.8855      2.00000
      4       6.8855      2.00000
      5      10.4895      0.00000
      6      11.5224      0.00000
      7      11.5224      0.00000
      8      16.3162      0.00000

 k-point     6 :       0.4167    0.0000    0.0000
  band No.  band energies     occupation 
      1      -2.9823      2.00000
      2       0.6572      2.00000
      3       6.7250      2.00000
      4       6.7250      2.00000
      5      10.3421      0.00000
      6      11.3054      0.00000
      7      11.3054      0.00000
      8      16.1070      0.00000

 k-point     7 :       0.5000    0.0000    0.0000
  band No.  band energies     occupation 
      1      -2.5260      2.00000
      2       0.0050      2.00000
      3       6.6718      2.00000
      4       6.6718      2.00000
      5      10.2914      0.00000
      6      11.2162      0.00000
      7      11.2162      0.00000
      8      15.9814      0.00000

 k-point     8 :       0.0833    0.0833    0.0000
  band No.  band energies     occupation 
      1      -5.2713      2.00000
      2       7.4567      2.00000
      3       7.4955      2.00000
      4       7.4955      2.00000
      5      10.3369      0.00000
      6      11.3844      0.00000
      7      11.3844      0.00000
      8      14.1723      0.00000

 k-point     9 :       0.1667    0.0833    0.0000
  band No.  band energies     occupation 
      1      -5.0215      2.00000
      2       6.0043      2.00000
      3       7.0583      2.00000
      4       7.3960      2.00000
      5      10.3870      0.00000
      6      11.7574      0.00000
      7      12.0185      0.00000
      8      13.7731      0.00000

 k-point    10 :       0.2500    0.0833    0.0000
  band No.  band energies     occupation 
      1      -4.5647      2.00000
      2       4.2752      2.00000
      3       6.6987      2.00000
      4       7.0322      2.00000
      5      10.6747      0.00000
      6      11.7582      0.00000
      7      12.3924      0.00000
      8      13.5838      0.00000

 k-point    11 :       0.3333    0.0833    0.0000
  band No.  band energies     occupation 
      1      -3.9197      2.00000
      2       2.5985      2.00000
      3       6.4690      2.00000
      4       6.6286      2.00000
      5      10.6844      0.00000
      6      11.5991      0.00000
      7      12.2714      0.00000
      8      14.2626      0.00000

 k-point    12 :       0.4167    0.0833    0.0000
  band No.  band energies     occupation 
      1      -3.1453      2.00000
      2       1.1293      2.00000
      3       6.2827      2.00000
      4       6.3831      2.00000
      5      10.5849      0.00000
      6      11.4131      0.00000
      7      11.9371      0.00000
      8      15.5338      0.00000

 k-point    13 :       0.5000    0.0833    0.0000
  band No.  band energies     occupation 
      1      -2.4938      2.00000
      2       0.1566      2.00000
      3       6.0321      2.00000
      4       6.4379      2.00000
      5      10.5732      0.00000
      6      11.3294      0.00000
      7      11.6545      0.00000
      8      16.4125      0.00000

 k-point    14 :      -0.4167    0.0833    0.0000
  band No.  band energies     occupation 
      1      -2.6608      2.00000
      2       0.3890      2.00000
      3       5.8998      2.00000
      4       6.6203      2.00000
      5      10.6877      0.00000
      6      11.3968      0.00000
      7      11.5229      0.00000
      8      16.5099      0.00000

 k-point    15 :      -0.3333    0.0833    0.0000
  band No.  band energies     occupation 
      1      -3.4112      2.00000
      2       1.5885      2.00000
      3       5.9041      2.00000
      4       6.9096      2.00000
      5      10.8863      0.00000
      6      11.5424      0.00000
      7      11.6278      0.00000
      8      15.8590      0.00000

 k-point    16 :      -0.2500    0.0833    0.0000
  band No.  band energies     occupation 
      1      -4.1544      2.00000
      2       3.1443      2.00000
      3       6.0583      2.00000
      4       7.2753      2.00000
      5      11.1188      0.00000
      6      11.5812      0.00000
      7      11.9062      0.00000
      8      14.6857      0.00000

 k-point    17 :      -0.1667    0.0833    0.0000
  band No.  band energies     occupation 
      1      -4.7398      2.00000
      2       4.8463      2.00000
      3       6.3746      2.00000
      4       7.6601      2.00000
      5      11.3203      0.00000
      6      11.3475      0.00000
      7      11.8611      0.00000
      8      14.3283      0.00000

 k-point    18 :      -0.0833    0.0833    0.0000
  band No.  band energies     occupation 
      1      -5.1286      2.00000
      2       6.3979      2.00000
      3       6.9517      2.00000
      4       7.9281      1.99840
      5      10.9486      0.00000
      6      11.2076      0.00000
      7      11.4560      0.00000
      8      14.6916      0.00000

 k-point    19 :       0.1667    0.1667    0.0000
  band No.  band energies     occupation 
      1      -4.8424      2.00000
      2       6.1331      2.00000
      3       6.5740      2.00000
      4       6.5740      2.00000
      5       9.6382      0.00000
      6      12.6579      0.00000
      7      12.8151      0.00000
      8      12.8151      0.00000

 k-point    20 :       0.2500    0.1667    0.0000
  band No.  band energies     occupation 
      1      -4.4542      2.00000
      2       4.7990      2.00000
      3       6.1830      2.00000
      4       6.2671      2.00000
      5       9.6651      0.00000
      6      12.0027      0.00000
      7      13.2339      0.00000
      8      13.4331      0.00000

 k-point    21 :       0.3333    0.1667    0.0000
  band No.  band energies     occupation 
      1      -3.8700      2.00000
      2       3.2200      2.00000
      3       5.7710      2.00000
[...]
      8      16.6606      0.00000

 k-point    37 :       0.5000    0.3333    0.0000
  band No.  band energies     occupation 
      1      -1.7496      2.00000
      2       0.9914      2.00000
      3       3.5821      2.00000
      4       4.9865      2.00000
      5       8.7111      0.00000
      6      10.6468      0.00000
      7      16.1237      0.00000
      8      16.6457      0.00000

 k-point    38 :      -0.4167    0.3333    0.0000
  band No.  band energies     occupation 
      1      -1.1238      2.00000
      2       0.3592      2.00000
      3       2.8494      2.00000
      4       5.1739      2.00000
      5       8.9199      0.00000
      6      12.2974      0.00000
      7      15.7291      0.00000
      8      16.4778      0.00000

 k-point    39 :      -0.3333    0.3333    0.0000
  band No.  band energies     occupation 
      1      -1.4452      2.00000
      2       0.6834      2.00000
      3       2.5987      2.00000
      4       5.5229      2.00000
      5       9.3275      0.00000
      6      13.9876      0.00000
      7      15.1852      0.00000
      8      15.8079      0.00000

 k-point    40 :       0.4167    0.4167    0.0000
  band No.  band energies     occupation 
      1      -1.9358      2.00000
      2       1.1141      2.00000
      3       4.7599      2.00000
      4       4.7599      2.00000
      5       8.1878      0.07439
      6       8.7350      0.00000
      7      17.9601      0.00000
      8      17.9601      0.00000

 k-point    41 :       0.5000    0.4167    0.0000
  band No.  band energies     occupation 
      1      -1.1982      2.00000
      2       0.3062      2.00000
      3       4.1847      2.00000
      4       4.7226      2.00000
      5       8.3678      0.00006
      6       9.0347      0.00000
      7      18.1087      0.00000
      8      18.4409      0.00000

 k-point    42 :      -0.4167    0.4167    0.0000
  band No.  band energies     occupation 
      1      -0.5912      2.00000
      2      -0.1989      2.00000
      3       3.2992      2.00000
      4       4.8636      2.00000
      5       8.5450      0.00000
      6      10.4724      0.00000
      7      17.6438      0.00000
      8      17.8746      0.00000

 k-point    43 :       0.5000    0.5000    0.0000
  band No.  band energies     occupation 
      1      -0.4952      2.00000
      2      -0.4952      2.00000
      3       4.6330      2.00000
      4       4.6330      2.00000
      5       8.2751      0.00235
      6       8.2751      0.00235
      7      19.6603      0.00000
      8      19.6603      0.00000

 k-point    44 :       0.2500    0.1667    0.0833
  band No.  band energies     occupation 
      1      -4.7027      2.00000
      2       5.2044      2.00000
      3       6.0238      2.00000
      4       7.2622      2.00000
      5      10.4045      0.00000
      6      12.2306      0.00000
      7      12.5844      0.00000
      8      13.0535      0.00000

 k-point    45 :       0.3333    0.1667    0.0833
  band No.  band energies     occupation 
      1      -4.1819      2.00000
      2       3.7405      2.00000
      3       5.4553      2.00000
      4       6.9240      2.00000
      5      10.7519      0.00000
      6      12.0761      0.00000
      7      12.9692      0.00000
      8      13.0226      0.00000

 k-point    46 :       0.4167    0.1667    0.0833
  band No.  band energies     occupation 
      1      -3.4853      2.00000
      2       2.1800      2.00000
      3       5.2031      2.00000
      4       6.5135      2.00000
      5      10.8505      0.00000
      6      11.6757      0.00000
      7      13.0146      0.00000
      8      13.8657      0.00000

 k-point    47 :       0.5000    0.1667    0.0833
  band No.  band energies     occupation 
      1      -2.7036      2.00000
      2       0.8472      2.00000
      3       5.0997      2.00000
      4       6.1955      2.00000
      5      10.8622      0.00000
      6      11.2916      0.00000
      7      12.8898      0.00000
      8      15.3283      0.00000

 k-point    48 :      -0.4167    0.1667    0.0833
  band No.  band energies     occupation 
      1      -2.2439      2.00000
      2       0.2000      2.00000
      3       5.0775      2.00000
      4       6.0733      2.00000
      5      10.9430      0.00000
      6      11.0630      0.00000
      7      12.8365      0.00000
      8      16.8834      0.00000

 k-point    49 :       0.3333    0.2500    0.0833
  band No.  band energies     occupation 
      1      -4.0007      2.00000
      2       3.9710      2.00000
      3       5.1998      2.00000
      4       6.1205      2.00000
      5       9.7392      0.00000
      6      11.4333      0.00000
      7      13.4533      0.00000
      8      14.2999      0.00000

 k-point    50 :       0.4167    0.2500    0.0833
  band No.  band energies     occupation 
      1      -3.3605      2.00000
      2       2.7089      2.00000
      3       4.6139      2.00000
      4       5.7392      2.00000
      5      10.0755      0.00000
      6      11.6846      0.00000
      7      13.1929      0.00000
      8      14.7162      0.00000

 k-point    51 :       0.5000    0.2500    0.0833
  band No.  band energies     occupation 
      1      -2.5892      2.00000
      2       1.3968      2.00000
      3       4.2569      2.00000
      4       5.4579      2.00000
      5      10.1580      0.00000
      6      12.3990      0.00000
      7      13.2884      0.00000
      8      14.7327      0.00000

 k-point    52 :      -0.4167    0.2500    0.0833
  band No.  band energies     occupation 
      1      -1.9344      2.00000
      2       0.4788      2.00000
      3       3.9808      2.00000
      4       5.4343      2.00000
      5      10.3076      0.00000
      6      12.2172      0.00000
      7      14.2862      0.00000
      8      15.1460      0.00000

 k-point    53 :      -0.3333    0.2500    0.0833
  band No.  band energies     occupation 
      1      -2.1156      2.00000
      2       0.7238      2.00000
      3       3.8117      2.00000
      4       5.6572      2.00000
      5      10.6265      0.00000
      6      11.9921      0.00000
      7      14.3553      0.00000
      8      15.2836      0.00000

 k-point    54 :      -0.2500    0.2500    0.0833
  band No.  band energies     occupation 
      1      -2.8691      2.00000
      2       1.8435      2.00000
      3       3.8324      2.00000
      4       6.0596      2.00000
      5      11.1005      0.00000
      6      11.8265      0.00000
      7      13.6703      0.00000
      8      14.3550      0.00000

 k-point    55 :      -0.1667    0.2500    0.0833
  band No.  band energies     occupation 
      1      -3.6045      2.00000
      2       3.0359      2.00000
      3       4.2616      2.00000
      4       6.5453      2.00000
      5      11.4052      0.00000
      6      11.6615      0.00000
      7      12.8722      0.00000
      8      13.9125      0.00000

 k-point    56 :       0.4167    0.3333    0.0833
  band No.  band energies     occupation 
      1      -3.0363      2.00000
      2       2.6023      2.00000
      3       4.5965      2.00000
      4       5.1116      2.00000
      5       9.2370      0.00000
      6      10.2151      0.00000
      7      14.8213      0.00000
      8      16.1023      0.00000

 k-point    57 :       0.5000    0.3333    0.0833
  band No.  band energies     occupation 
      1      -2.3004      2.00000
      2       1.6117      2.00000
      3       3.8740      2.00000
      4       4.8316      2.00000
      5       9.5481      0.00000
      6      10.9363      0.00000
      7      14.4455      0.00000
      8      16.5209      0.00000

 k-point    58 :      -0.4167    0.3333    0.0833
  band No.  band energies     occupation 
      1      -1.5494      2.00000
      2       0.7060      2.00000
      3       3.2388      2.00000
      4       4.8487      2.00000
      5       9.7021      0.00000
      6      12.4061      0.00000
      7      14.1111      0.00000
      8      16.4812      0.00000

 k-point    59 :      -0.3333    0.3333    0.0833
  band No.  band energies     occupation 
      1      -1.4345      2.00000
      2       0.5933      2.00000
      3       2.8691      2.00000
      4       5.0988      2.00000
      5      10.0144      0.00000
      6      13.3418      0.00000
      7      14.5307      0.00000
      8      15.4896      0.00000

 k-point    60 :      -0.2500    0.3333    0.0833
  band No.  band energies     occupation 
      1      -2.1191      2.00000
      2       1.3254      2.00000
      3       2.9567      2.00000
      4       5.5279      2.00000
      5      10.5009      0.00000
      6      12.9872      0.00000
      7      13.9214      0.00000
      8      15.4185      0.00000

 k-point    61 :       0.5000    0.4167    0.0833
  band No.  band energies     occupation 
      1      -1.8332      2.00000
      2       1.0880      2.00000
      3       4.2557      2.00000
      4       4.4738      2.00000
      5       8.9852      0.00000
      6       9.4293      0.00000
      7      16.3216      0.00000
      8      17.9389      0.00000

 k-point    62 :      -0.4167    0.4167    0.0833
  band No.  band energies     occupation 
      1      -1.0555      2.00000
      2       0.3347      2.00000
      3       3.4196      2.00000
      4       4.4283      2.00000
      5       9.2653      0.00000
      6      10.5760      0.00000
      7      15.9262      0.00000
      8      17.5953      0.00000

 k-point    63 :      -0.3333    0.4167    0.0833
  band No.  band energies     occupation 
      1      -0.8026      2.00000
      2       0.1576      2.00000
      3       2.7734      2.00000
      4       4.6705      2.00000
      5       9.5468      0.00000
      6      12.2997      0.00000
      7      15.4586      0.00000
      8      15.7423      0.00000

 k-point    64 :      -0.4167    0.5000    0.0833
  band No.  band energies     occupation 
      1      -0.4333      2.00000
      2      -0.4333      2.00000
      3       4.2042      2.00000
      4       4.2042      2.00000
      5       9.0350      0.00000
      6       9.0350      0.00000
      7      17.9774      0.00000
      8      17.9774      0.00000

 k-point    65 :       0.5000    0.3333    0.1667
  band No.  band energies     occupation 
      1      -2.6774      2.00000
      2       2.0263      2.00000
      3       3.6879      2.00000
      4       5.2357      2.00000
      5      10.9484      0.00000
      6      11.5555      0.00000
      7      12.8411      0.00000
      8      15.8696      0.00000

 k-point    66 :      -0.4167    0.3333    0.1667
  band No.  band energies     occupation 
      1      -1.9007      2.00000
      2       1.0852      2.00000
      3       3.2996      2.00000
      4       4.7982      2.00000
      5      11.2216      0.00000
      6      11.9588      0.00000
      7      13.2090      0.00000
      8      16.2280      0.00000

 k-point    67 :      -0.3333    0.3333    0.1667
  band No.  band energies     occupation 
      1      -1.4234      2.00000
      2       0.5135      2.00000
      3       3.2166      2.00000
      4       4.6298      2.00000
      5      11.2521      0.00000
      6      11.9105      0.00000
      7      14.4534      0.00000
      8      15.3215      0.00000

 k-point    68 :      -0.4167    0.4167    0.1667
  band No.  band energies     occupation 
      1      -1.5470      2.00000
      2       0.9356      2.00000
      3       3.4252      2.00000
      4       4.1393      2.00000
      5      10.6983      0.00000
      6      11.0005      0.00000
      7      13.9998      0.00000
      8      17.1340      0.00000

 k-point    69 :      -0.3333    0.4167    0.1667
  band No.  band energies     occupation 
      1      -0.8779      2.00000
      2       0.3250      2.00000
      3       3.0005      2.00000
      4       3.9541      2.00000
      5      11.0134      0.00000
      6      12.3570      0.00000
      7      13.7401      0.00000
      8      15.1957      0.00000

 k-point    70 :      -0.2500    0.4167    0.1667
  band No.  band energies     occupation 
      1      -1.1549      2.00000
      2       0.5852      2.00000
      3       2.8460      2.00000
      4       4.2388      2.00000
      5      11.3295      0.00000
      6      12.6785      0.00000
      7      13.4978      0.00000
      8      14.9268      0.00000

 k-point    71 :      -0.3333    0.5000    0.1667
  band No.  band energies     occupation 
      1      -0.2953      2.00000
      2      -0.2953      2.00000
      3       3.5429      2.00000
      4       3.5429      2.00000
      5      10.7066      0.00000
      6      10.7066      0.00000
      7      15.5062      0.00000
      8      15.5062      0.00000

 k-point    72 :      -0.2500    0.5000    0.2500
  band No.  band energies     occupation 
      1      -0.2170      2.00000
      2      -0.2170      2.00000
      3       3.2585      2.00000
      4       3.2585      2.00000
      5      12.2644      0.00000
      6      12.2644      0.00000
      7      13.6906      0.00000
      8      13.6906      0.00000


--------------------------------------------------------------------------------------------------------


 soft charge-density along one line, spin component           1
         0         1         2         3         4         5         6         7         8         9
 total charge-density along one line
 
 pseudopotential strength for first ion, spin component:           1
 18.177  -0.003   0.000   0.000   0.000  -0.000  -0.000  -0.000
 -0.003   0.006  -0.000  -0.000  -0.000   0.000   0.000   0.000
  0.000  -0.000   4.157  -0.000  -0.000  -0.006   0.000   0.000
  0.000  -0.000  -0.000   4.157  -0.000   0.000  -0.006   0.000
  0.000  -0.000  -0.000  -0.000   4.157   0.000   0.000  -0.006
 -0.000   0.000  -0.006   0.000   0.000   0.005  -0.000  -0.000
 -0.000   0.000   0.000  -0.006   0.000  -0.000   0.005  -0.000
 -0.000   0.000   0.000   0.000  -0.006  -0.000  -0.000   0.005
 total augmentation occupancy for first ion, spin component:           1
  1.484  -1.085   0.000   0.000   0.000   0.000   0.000   0.000
 -1.085   1.264   0.000   0.000  -0.000   0.000   0.000  -0.000
  0.000   0.000   1.181   0.000   0.000  -0.736   0.000   0.000
  0.000   0.000   0.000   1.181  -0.000   0.000  -0.736   0.000
  0.000   0.000   0.000  -0.000   1.181   0.000   0.000  -0.736
  0.000  -0.000  -0.736   0.000   0.000   0.542   0.000   0.000
  0.000  -0.000   0.000  -0.736   0.000   0.000   0.542   0.000
  0.000  -0.000   0.000   0.000  -0.736   0.000   0.000   0.542


------------------------ aborting loop because EDIFF is reached ----------------------------------------


    CHARGE:  cpu time    0.02: real time    0.02
    FORLOC:  cpu time    0.00: real time    0.00
    FORNL :  cpu time    0.03: real time    0.03
    STRESS:  cpu time    0.24: real time    0.23
    FORCOR:  cpu time    0.01: real time    0.01
    FORHAR:  cpu time    0.00: real time    0.00
    MIXING:  cpu time    0.00: real time    0.00
    OFIELD:  cpu time    0.00: real time    0.00

  FORCE on cell =-STRESS in cart. coord.  units (eV):
  Direction    XX          YY          ZZ          XY          YZ          ZX
  --------------------------------------------------------------------------------------
  Alpha Z     4.10684     4.10684     4.10684
  Ewald     -81.42610   -81.42610   -81.42610     0.00000     0.00000    -0.00000
  Hartree     4.20865     4.20865     4.20865     0.00000     0.00000     0.00000
  E(xc)     -26.64852   -26.64852   -26.64852     0.00000     0.00000     0.00000
  Local     -26.71829   -26.71829   -26.71829     0.00001     0.00001     0.00001
  n-local    83.84756    85.36635    79.24598     2.74804    -1.67411     0.73569
  augment   -11.87549   -11.87549   -11.87549    -0.00001    -0.00001    -0.00001
  Kinetic    64.28528    59.50811    61.89017     3.59856    -0.26157     1.11584
  Fock        0.00000     0.00000     0.00000     0.00000     0.00000     0.00000
  -------------------------------------------------------------------------------------
  Total       6.36157     6.36157     6.36157    -0.00000    -0.00000    -0.00000
  in kB     310.86285   310.86285   310.86285    -0.00000    -0.00000    -0.00000
  external pressure =      310.86 kB  Pullay stress =        0.00 kB


 VOLUME and BASIS-vectors are now :
 -----------------------------------------------------------------------------
  energy-cutoff  :      600.00
  volume of cell :       32.79
      direct lattice vectors                 reciprocal lattice vectors
     0.000000000  2.540341184  2.540341184    -0.196823955  0.196823955  0.196823955
     2.540341184  0.000000000  2.540341184     0.196823955 -0.196823955  0.196823955
     2.540341184  2.540341184  0.000000000     0.196823955  0.196823955 -0.196823955

  length of vectors
     3.592584956  3.592584956  3.592584956     0.340909091  0.340909091  0.340909091


 FORCES acting on ions
    electron-ion (+dipol)            ewald-force                    non-local-force                 convergence-correction
 -----------------------------------------------------------------------------------------------
   -.728E-07 -.728E-07 -.485E-07   0.180E-14 -.151E-14 0.301E-14   -.486E-16 -.347E-16 -.243E-16   0.237E-14 0.101E-14 0.690E-15
   0.728E-07 0.728E-07 0.485E-07   -.160E-14 0.765E-15 -.282E-14   0.902E-16 0.451E-16 0.347E-17   -.246E-14 0.430E-15 -.622E-15
 -----------------------------------------------------------------------------------------------
   -.559E-13 -.223E-13 0.353E-13   0.191E-15 -.741E-15 0.189E-15   0.416E-16 0.104E-16 -.208E-16   -.821E-16 0.144E-14 0.683E-16
 
 
 POSITION                                       TOTAL-FORCE (eV/Angst)
 -----------------------------------------------------------------------------------
      0.00000      0.00000      0.00000         0.000000      0.000000      0.000000
      1.27017      1.27017      1.27017        -0.000000     -0.000000     -0.000000
 -----------------------------------------------------------------------------------
    total drift:                               -0.000000     -0.000000      0.000000


--------------------------------------------------------------------------------------------------------



  FREE ENERGIE OF THE ION-ELECTRON SYSTEM (eV)
  ---------------------------------------------------
  free  energy   TOTEN  =       -10.19843681 eV

  energy  without entropy=      -10.19838204  energy(sigma->0) =      -10.19840942
 


--------------------------------------------------------------------------------------------------------


    POTLOK:  cpu time    0.02: real time    0.02


--------------------------------------------------------------------------------------------------------


 writing wavefunctions
     LOOP+:  cpu time    5.93: real time    6.55
    4ORBIT:  cpu time    0.00: real time    0.00

 total amount of memory used by VASP on root node    40743. kBytes
========================================================================

   base      :      30000. kBytes
   nonl-proj :       5178. kBytes
   fftplans  :       1025. kBytes
   grid      :       1926. kBytes
   one-center:          6. kBytes
   wavefun   :       2608. kBytes
 
  
  
 General timing and accounting informations for this job:
 ========================================================
  
                  Total CPU time used (sec):        6.276
                            User time (sec):        6.032
                          System time (sec):        0.244
                         Elapsed time (sec):        6.991
  
                   Maximum memory used (kb):       45644.
                   Average memory used (kb):           0.
  
                          Minor page faults:         6445
                          Major page faults:            6
                 Voluntary context switches:          581
