 vasp.5.3.5 31Mar14 (build Jun 01 2017 17:55:53) complex                        
  
 executed on             LinuxIFC date 2020.11.10  15:17:23
 running on    4 total cores
 distrk:  each k-point on    4 cores,    1 groups
 distr:  one band on NCORES_PER_BAND=   1 cores,    4 groups


--------------------------------------------------------------------------------------------------------


 INCAR:
 POTCAR:   PAW_PBE Si 05Jan2001                   
 POTCAR:   PAW_PBE Si 05Jan2001                   
   VRHFIN =Si: s2p2                                                             
   LEXCH  = PE                                                                  
   EATOM  =   103.0669 eV,    7.5752 Ry                                         
                                                                                
   TITEL  = PAW_PBE Si 05Jan2001                                                
   LULTRA =        F    use ultrasoft PP ?                                      
   IUNSCR =        1    unscreen: 0-lin 1-nonlin 2-no                           
   RPACOR =    1.500    partial core radius                                     
   POMASS =   28.085; ZVAL   =    4.000    mass and valenz                      
   RCORE  =    1.900    outmost cutoff radius                                   
   RWIGS  =    2.480; RWIGS  =    1.312    wigner-seitz radius (au A)           
   ENMAX  =  245.345; ENMIN  =  184.009 eV                                      
   ICORE  =        2    local potential                                         
   LCOR   =        T    correct aug charges                                     
   LPAW   =        T    paw PP                                                  
   EAUG   =  322.069                                                            
   DEXC   =    -.007                                                            
   RMAX   =    2.944    core radius for proj-oper                               
   RAUG   =    1.300    factor for augmentation sphere                          
   RDEP   =    1.993    radius for radial grids                                 
   QCUT   =   -4.246; QGAM   =    8.493    optimization parameters              
                                                                                
   Description                                                                  
     l     E      TYP  RCUT    TYP  RCUT                                        
     0   .000     23  1.900                                                     
     0   .000     23  1.900                                                     
     1   .000     23  1.900                                                     
     1   .000     23  1.900                                                     
     2   .000      7  1.900                                                     
  local pseudopotential read in
  partial core-charges read in
  atomic valenz-charges read in
  non local Contribution for L=           0  read in
    real space projection operators read in
  non local Contribution for L=           0  read in
    real space projection operators read in
  non local Contribution for L=           1  read in
    real space projection operators read in
  non local Contribution for L=           1  read in
    real space projection operators read in
    PAW grid and wavefunctions read in
 
   number of l-projection  operators is LMAX  =           4
   number of lm-projection operators is LMMAX =           8
 
 PAW_PBE Si 05Jan2001                   :
 energy of atom  1       EATOM= -103.0669
 kinetic energy error for atom=    0.0003 (will be added to EATOM!!)
 
 
 POSCAR: Si
  positions in direct lattice
  velocities in cartesian coordinates
  No initial velocities read in
 exchange correlation table for  LEXCH =        8
   RHO(1)=    0.500       N(1)  =     2000
   RHO(2)=  100.500       N(2)  =     4000
 


--------------------------------------------------------------------------------------------------------


 ion  position               nearest neighbor table
   1  0.000  0.000  0.000-   2 2.25   2 2.25   2 2.25   2 2.25
   2  0.250  0.250  0.250-   1 2.25   1 2.25   1 2.25   1 2.25
 
  LATTYP: Found a face centered cubic cell.
 ALAT       =     5.1961524227
  
  Lattice vectors:
  
 A1 = (   0.0000000000,   2.5980762114,   2.5980762114)
 A2 = (   2.5980762114,   0.0000000000,   2.5980762114)
 A3 = (   2.5980762114,   2.5980762114,   0.0000000000)


Analysis of symmetry for initial positions (statically):
=====================================================================
 Subroutine PRICEL returns:
 Original cell was already a primitive cell.
 

 Routine SETGRP: Setting up the symmetry group for a 
 face centered cubic supercell.


 Subroutine GETGRP returns: Found 48 space group operations
 (whereof 24 operations were pure point group operations)
 out of a pool of 48 trial point group operations.


The static configuration has the point symmetry T_d .
 The point group associated with its full space group is O_h .


Analysis of symmetry for dynamics (positions and initial velocities):
=====================================================================
 Subroutine PRICEL returns:
 Original cell was already a primitive cell.
 

 Routine SETGRP: Setting up the symmetry group for a 
 face centered cubic supercell.


 Subroutine GETGRP returns: Found 48 space group operations
 (whereof 24 operations were pure point group operations)
 out of a pool of 48 trial point group operations.


The dynamic configuration has the point symmetry T_d .
 The point group associated with its full space group is O_h .


Analysis of constrained symmetry for selective dynamics:
=====================================================================
 Subroutine PRICEL returns:
 Original cell was already a primitive cell.
 

 Routine SETGRP: Setting up the symmetry group for a 
 face centered cubic supercell.


 Subroutine GETGRP returns: Found 48 space group operations
 (whereof 24 operations were pure point group operations)
 out of a pool of 48 trial point group operations.


The constrained configuration has the point symmetry T_d .
 The point group associated with its full space group is O_h .
 
 
 KPOINTS: Gamma centered Monkhorst-Pack           

Automatic generation of k-mesh.
Space group operators:
 irot       det(A)        alpha          n_x          n_y          n_z        tau_x        tau_y        tau_z
    1     1.000000     0.000000     1.000000     0.000000     0.000000     0.000000     0.000000     0.000000
    2     1.000000   120.000000    -0.577350    -0.577350    -0.577350     0.000000     0.000000     0.000000
    3     1.000000   120.000000     0.577350     0.577350     0.577350     0.000000     0.000000     0.000000
    4    -1.000000    90.000000     0.000000     0.000000    -1.000000     0.000000     0.000000     0.000000
    5    -1.000000   180.000000     0.000000     0.707107     0.707107     0.000000     0.000000     0.000000
    6    -1.000000    90.000000     0.000000     1.000000     0.000000     0.000000     0.000000     0.000000
    7     1.000000   180.000000     0.000000     0.000000     1.000000     0.000000     0.000000     0.000000
    8     1.000000   120.000000    -0.577350     0.577350     0.577350     0.000000     0.000000     0.000000
    9     1.000000   120.000000    -0.577350     0.577350    -0.577350     0.000000     0.000000     0.000000
   10    -1.000000    90.000000     0.000000     0.000000     1.000000     0.000000     0.000000     0.000000
   11    -1.000000    90.000000    -1.000000     0.000000     0.000000     0.000000     0.000000     0.000000
   12    -1.000000   180.000000     0.707107     0.000000     0.707107     0.000000     0.000000     0.000000
   13     1.000000   120.000000     0.577350    -0.577350     0.577350     0.000000     0.000000     0.000000
   14     1.000000   120.000000    -0.577350    -0.577350     0.577350     0.000000     0.000000     0.000000
   15     1.000000   180.000000     1.000000     0.000000     0.000000     0.000000     0.000000     0.000000
   16    -1.000000    90.000000     0.000000    -1.000000     0.000000     0.000000     0.000000     0.000000
   17    -1.000000   180.000000     0.707107     0.707107     0.000000     0.000000     0.000000     0.000000
   18    -1.000000    90.000000     1.000000     0.000000     0.000000     0.000000     0.000000     0.000000
   19     1.000000   120.000000     0.577350    -0.577350    -0.577350     0.000000     0.000000     0.000000
   20     1.000000   180.000000     0.000000     1.000000     0.000000     0.000000     0.000000     0.000000
   21     1.000000   120.000000     0.577350     0.577350    -0.577350     0.000000     0.000000     0.000000
   22    -1.000000   180.000000     0.000000    -0.707107     0.707107     0.000000     0.000000     0.000000
   23    -1.000000   180.000000     0.707107    -0.707107     0.000000     0.000000     0.000000     0.000000
   24    -1.000000   180.000000     0.707107     0.000000    -0.707107     0.000000     0.000000     0.000000
   25    -1.000000     0.000000     1.000000     0.000000     0.000000     0.250000     0.250000     0.250000
   26    -1.000000   120.000000    -0.577350    -0.577350    -0.577350     0.250000     0.250000     0.250000
   27    -1.000000   120.000000     0.577350     0.577350     0.577350     0.250000     0.250000     0.250000
   28     1.000000    90.000000     0.000000     0.000000    -1.000000     0.250000     0.250000     0.250000
   29     1.000000   180.000000     0.000000     0.707107     0.707107     0.250000     0.250000     0.250000
   30     1.000000    90.000000     0.000000     1.000000     0.000000     0.250000     0.250000     0.250000
   31    -1.000000   180.000000     0.000000     0.000000     1.000000     0.250000     0.250000     0.250000
   32    -1.000000   120.000000    -0.577350     0.577350     0.577350     0.250000     0.250000     0.250000
   33    -1.000000   120.000000    -0.577350     0.577350    -0.577350     0.250000     0.250000     0.250000
   34     1.000000    90.000000     0.000000     0.000000     1.000000     0.250000     0.250000     0.250000
   35     1.000000    90.000000    -1.000000     0.000000     0.000000     0.250000     0.250000     0.250000
   36     1.000000   180.000000     0.707107     0.000000     0.707107     0.250000     0.250000     0.250000
   37    -1.000000   120.000000     0.577350    -0.577350     0.577350     0.250000     0.250000     0.250000
   38    -1.000000   120.000000    -0.577350    -0.577350     0.577350     0.250000     0.250000     0.250000
   39    -1.000000   180.000000     1.000000     0.000000     0.000000     0.250000     0.250000     0.250000
   40     1.000000    90.000000     0.000000    -1.000000     0.000000     0.250000     0.250000     0.250000
   41     1.000000   180.000000     0.707107     0.707107     0.000000     0.250000     0.250000     0.250000
   42     1.000000    90.000000     1.000000     0.000000     0.000000     0.250000     0.250000     0.250000
   43    -1.000000   120.000000     0.577350    -0.577350    -0.577350     0.250000     0.250000     0.250000
   44    -1.000000   180.000000     0.000000     1.000000     0.000000     0.250000     0.250000     0.250000
   45    -1.000000   120.000000     0.577350     0.577350    -0.577350     0.250000     0.250000     0.250000
   46     1.000000   180.000000     0.000000    -0.707107     0.707107     0.250000     0.250000     0.250000
   47     1.000000   180.000000     0.707107    -0.707107     0.000000     0.250000     0.250000     0.250000
   48     1.000000   180.000000     0.707107     0.000000    -0.707107     0.250000     0.250000     0.250000
 
 Subroutine IBZKPT returns following result:
 ===========================================
 
 Found     72 irreducible k-points:
 
 Following reciprocal coordinates:
            Coordinates               Weight
  0.000000  0.000000  0.000000      1.000000
  0.083333  0.000000  0.000000      8.000000
  0.166667  0.000000  0.000000      8.000000
  0.250000  0.000000  0.000000      8.000000
  0.333333  0.000000  0.000000      8.000000
  0.416667  0.000000  0.000000      8.000000
  0.500000  0.000000  0.000000      4.000000
  0.083333  0.083333  0.000000      6.000000
  0.166667  0.083333  0.000000     24.000000
  0.250000  0.083333  0.000000     24.000000
  0.333333  0.083333  0.000000     24.000000
  0.416667  0.083333  0.000000     24.000000
  0.500000  0.083333  0.000000     24.000000
 -0.416667  0.083333  0.000000     24.000000
 -0.333333  0.083333  0.000000     24.000000
 -0.250000  0.083333  0.000000     24.000000
 -0.166667  0.083333  0.000000     24.000000
 -0.083333  0.083333  0.000000     12.000000
  0.166667  0.166667  0.000000      6.000000
  0.250000  0.166667  0.000000     24.000000
  0.333333  0.166667  0.000000     24.000000
  0.416667  0.166667  0.000000     24.000000
  0.500000  0.166667  0.000000     24.000000
 -0.416667  0.166667  0.000000     24.000000
 -0.333333  0.166667  0.000000     24.000000
 -0.250000  0.166667  0.000000     24.000000
 -0.166667  0.166667  0.000000     12.000000
  0.250000  0.250000  0.000000      6.000000
  0.333333  0.250000  0.000000     24.000000
  0.416667  0.250000  0.000000     24.000000
  0.500000  0.250000  0.000000     24.000000
 -0.416667  0.250000  0.000000     24.000000
 -0.333333  0.250000  0.000000     24.000000
 -0.250000  0.250000  0.000000     12.000000
  0.333333  0.333333  0.000000      6.000000
  0.416667  0.333333  0.000000     24.000000
  0.500000  0.333333  0.000000     24.000000
 -0.416667  0.333333  0.000000     24.000000
 -0.333333  0.333333  0.000000     12.000000
  0.416667  0.416667  0.000000      6.000000
  0.500000  0.416667  0.000000     24.000000
 -0.416667  0.416667  0.000000     12.000000
  0.500000  0.500000  0.000000      3.000000
  0.250000  0.166667  0.083333     24.000000
  0.333333  0.166667  0.083333     48.000000
  0.416667  0.166667  0.083333     48.000000
  0.500000  0.166667  0.083333     48.000000
 -0.416667  0.166667  0.083333     24.000000
  0.333333  0.250000  0.083333     24.000000
  0.416667  0.250000  0.083333     48.000000
  0.500000  0.250000  0.083333     48.000000
 -0.416667  0.250000  0.083333     48.000000
 -0.333333  0.250000  0.083333     48.000000
 -0.250000  0.250000  0.083333     48.000000
 -0.166667  0.250000  0.083333     24.000000
  0.416667  0.333333  0.083333     24.000000
  0.500000  0.333333  0.083333     48.000000
 -0.416667  0.333333  0.083333     48.000000
 -0.333333  0.333333  0.083333     48.000000
 -0.250000  0.333333  0.083333     24.000000
  0.500000  0.416667  0.083333     24.000000
 -0.416667  0.416667  0.083333     48.000000
 -0.333333  0.416667  0.083333     24.000000
 -0.416667  0.500000  0.083333     12.000000
  0.500000  0.333333  0.166667     24.000000
 -0.416667  0.333333  0.166667     48.000000
 -0.333333  0.333333  0.166667     24.000000
 -0.416667  0.416667  0.166667     24.000000
 -0.333333  0.416667  0.166667     48.000000
 -0.250000  0.416667  0.166667     24.000000
 -0.333333  0.500000  0.166667     12.000000
 -0.250000  0.500000  0.250000      6.000000
 
 Following cartesian coordinates:
            Coordinates               Weight
  0.000000  0.000000  0.000000      1.000000
 -0.083333  0.083333  0.083333      8.000000
 -0.166667  0.166667  0.166667      8.000000
 -0.250000  0.250000  0.250000      8.000000
 -0.333333  0.333333  0.333333      8.000000
 -0.416667  0.416667  0.416667      8.000000
 -0.500000  0.500000  0.500000      4.000000
  0.000000  0.000000  0.166667      6.000000
 -0.083333  0.083333  0.250000     24.000000
 -0.166667  0.166667  0.333333     24.000000
 -0.250000  0.250000  0.416667     24.000000
 -0.333333  0.333333  0.500000     24.000000
 -0.416667  0.416667  0.583333     24.000000
  0.500000 -0.500000 -0.333333     24.000000
  0.416667 -0.416667 -0.250000     24.000000
  0.333333 -0.333333 -0.166667     24.000000
  0.250000 -0.250000 -0.083333     24.000000
  0.166667 -0.166667  0.000000     12.000000
  0.000000  0.000000  0.333333      6.000000
 -0.083333  0.083333  0.416667     24.000000
 -0.166667  0.166667  0.500000     24.000000
 -0.250000  0.250000  0.583333     24.000000
 -0.333333  0.333333  0.666667     24.000000
  0.583333 -0.583333 -0.250000     24.000000
  0.500000 -0.500000 -0.166667     24.000000
  0.416667 -0.416667 -0.083333     24.000000
  0.333333 -0.333333  0.000000     12.000000
  0.000000  0.000000  0.500000      6.000000
 -0.083333  0.083333  0.583333     24.000000
 -0.166667  0.166667  0.666667     24.000000
 -0.250000  0.250000  0.750000     24.000000
  0.666667 -0.666667 -0.166667     24.000000
  0.583333 -0.583333 -0.083333     24.000000
  0.500000 -0.500000  0.000000     12.000000
  0.000000  0.000000  0.666667      6.000000
 -0.083333  0.083333  0.750000     24.000000
 -0.166667  0.166667  0.833333     24.000000
  0.750000 -0.750000 -0.083333     24.000000
  0.666667 -0.666667  0.000000     12.000000
  0.000000  0.000000  0.833333      6.000000
 -0.083333  0.083333  0.916667     24.000000
  0.833333 -0.833333  0.000000     12.000000
  0.000000  0.000000  1.000000      3.000000
  0.000000  0.166667  0.333333     24.000000
 -0.083333  0.250000  0.416667     48.000000
 -0.166667  0.333333  0.500000     48.000000
 -0.250000  0.416667  0.583333     48.000000
  0.666667 -0.500000 -0.333333     24.000000
  0.000000  0.166667  0.500000     24.000000
 -0.083333  0.250000  0.583333     48.000000
 -0.166667  0.333333  0.666667     48.000000
  0.750000 -0.583333 -0.250000     48.000000
  0.666667 -0.500000 -0.166667     48.000000
  0.583333 -0.416667 -0.083333     48.000000
  0.500000 -0.333333  0.000000     24.000000
 -0.000000  0.166667  0.666667     24.000000
 -0.083333  0.250000  0.750000     48.000000
  0.833333 -0.666667 -0.166667     48.000000
  0.750000 -0.583333 -0.083333     48.000000
  0.666667 -0.500000  0.000000     24.000000
  0.000000  0.166667  0.833333     24.000000
  0.916667 -0.750000 -0.083333     48.000000
  0.833333 -0.666667  0.000000     24.000000
  1.000000 -0.833333  0.000000     12.000000
  0.000000  0.333333  0.666667     24.000000
  0.916667 -0.583333 -0.250000     48.000000
  0.833333 -0.500000 -0.166667     24.000000
  1.000000 -0.666667 -0.166667     24.000000
  0.916667 -0.583333 -0.083333     48.000000
  0.833333 -0.500000  0.000000     24.000000
  1.000000 -0.666667  0.000000     12.000000
  1.000000 -0.500000  0.000000      6.000000
 


--------------------------------------------------------------------------------------------------------




 Dimension of arrays:
   k-points           NKPTS =     72   k-points in BZ     NKDIM =     72   number of bands    NBANDS=      8
   number of dos      NEDOS =    301   number of ions     NIONS =      2
   non local maximal  LDIM  =      4   non local SUM 2l+1 LMDIM =      8
   total plane-waves  NPLWV =  13824
   max r-space proj   IRMAX =      1   max aug-charges    IRDMAX=  13376
   dimension x,y,z NGX =    24 NGY =   24 NGZ =   24
   dimension x,y,z NGXF=    48 NGYF=   48 NGZF=   48
   support grid    NGXF=    48 NGYF=   48 NGZF=   48
   ions per type =               2
 NGX,Y,Z   is equivalent  to a cutoff of  10.86, 10.86, 10.86 a.u.
 NGXF,Y,Z  is equivalent  to a cutoff of  21.72, 21.72, 21.72 a.u.


 I would recommend the setting:
   dimension x,y,z NGX =    22 NGY =   22 NGZ =   22
 SYSTEM =  Si
 POSCAR =  Si

 Startparameter for this run:
   NWRITE =      2    write-flag & timer
   PREC   = normal    normal or accurate (medium, high low for compatibility)
   ISTART =      0    job   : 0-new  1-cont  2-samecut
   ICHARG =      2    charge: 1-file 2-atom 10-const
   ISPIN  =      1    spin polarized calculation?
   LNONCOLLINEAR =      F non collinear calculations
   LSORBIT =      F    spin-orbit coupling
   INIWAV =      1    electr: 0-lowe 1-rand  2-diag
   LASPH  =      F    aspherical Exc in radial PAW
   METAGGA=      F    non-selfconsistent MetaGGA calc.

 Electronic Relaxation 1
   ENCUT  =  600.0 eV  44.10 Ry    6.64 a.u.   7.34  7.34  7.34*2*pi/ulx,y,z
   ENINI  =  600.0     initial cutoff
   ENAUG  = 1200.0 eV  augmentation charge cutoff
   NELM   =    500;   NELMIN=  2; NELMDL= -5     # of ELM steps 
   EDIFF  = 0.1E-09   stopping-criterion for ELM
   LREAL  =      F    real-space projection
   NLSPLINE    = F    spline interpolate recip. space projectors
   LCOMPAT=      F    compatible to vasp.4.4
   GGA_COMPAT  = T    GGA compatible to vasp.4.4-vasp.4.6
   LMAXPAW     = -100 max onsite density
   LMAXMIX     =    2 max onsite mixed and CHGCAR
   VOSKOWN=      0    Vosko Wilk Nusair interpolation
   ROPT   =    0.00000
 Ionic relaxation
   EDIFFG = 0.1E-08   stopping-criterion for IOM
   NSW    =      0    number of steps for IOM
   NBLOCK =      1;   KBLOCK =      1    inner block; outer block 
   IBRION =     -1    ionic relax: 0-MD 1-quasi-New 2-CG
   NFREE  =      0    steps in history (QN), initial steepest desc. (CG)
   ISIF   =      2    stress and relaxation
   IWAVPR =     10    prediction:  0-non 1-charg 2-wave 3-comb
   ISYM   =      2    0-nonsym 1-usesym 2-fastsym
   LCORR  =      T    Harris-Foulkes like correction to forces

   POTIM  = 0.5000    time-step for ionic-motion
   TEIN   =    0.0    initial temperature
   TEBEG  =    0.0;   TEEND  =   0.0 temperature during run
   SMASS  =  -3.00    Nose mass-parameter (am)
   estimated Nose-frequenzy (Omega)   =  0.10E-29 period in steps =****** mass=  -0.309E-27a.u.
   SCALEE = 1.0000    scale energy and forces
   NPACO  =    256;   APACO  = 16.0  distance and # of slots for P.C.
   PSTRESS=    0.0 pullay stress

  Mass of Ions in am
   POMASS =  28.09
  Ionic Valenz
   ZVAL   =   4.00
  Atomic Wigner-Seitz radii
   RWIGS  =  -1.00
  virtual crystal weights 
   VCA    =   1.00
   NELECT =       8.0000    total number of electrons
   NUPDOWN=      -1.0000    fix difference up-down

 DOS related values:
   EMIN   =  10.00;   EMAX   =-10.00  energy-range for DOS
   EFERMI =   0.00
   ISMEAR =    -1;   SIGMA  =   0.03  broadening in eV -4-tet -1-fermi 0-gaus

 Electronic relaxation 2 (details)
   IALGO  =     38    algorithm
   LDIAG  =      T    sub-space diagonalisation (order eigenvalues)
   LSUBROT=      F    optimize rotation matrix (better conditioning)
   TURBO    =      0    0=normal 1=particle mesh
   IRESTART =      0    0=no restart 2=restart with 2 vectors
   NREBOOT  =      0    no. of reboots
   NMIN     =      0    reboot dimension
   EREF     =   0.00    reference energy to select bands
   IMIX   =      4    mixing-type and parameters
     AMIX     =   0.40;   BMIX     =  1.00
     AMIX_MAG =   1.60;   BMIX_MAG =  1.00
     AMIN     =   0.10
     WC   =   100.;   INIMIX=   1;  MIXPRE=   1;  MAXMIX= -45

 Intra band minimization:
   WEIMIN = 0.0000     energy-eigenvalue tresh-hold
   EBREAK =  0.31E-11  absolut break condition
   DEPER  =   0.30     relativ break condition  

   TIME   =   0.40     timestep for ELM

  volume/ion in A,a.u.               =      17.54       118.35
  Fermi-wavevector in a.u.,A,eV,Ry     =   1.000252  1.890203 13.612695  1.000505
  Thomas-Fermi vector in A             =   2.132597
 
 Write flags
   LWAVE  =      T    write WAVECAR
   LCHARG =      T    write CHGCAR
   LVTOT  =      F    write LOCPOT, total local potential
   LVHAR  =      F    write LOCPOT, Hartree potential only
   LELF   =      F    write electronic localiz. function (ELF)
   LORBIT =      0    0 simple, 1 ext, 2 COOP (PROOUT)


 Dipole corrections
   LMONO  =      F    monopole corrections only (constant potential shift)
   LDIPOL =      F    correct potential (dipole corrections)
   IDIPOL =      0    1-x, 2-y, 3-z, 4-all directions 
   EPSILON=  1.0000000 bulk dielectric constant

 Exchange correlation treatment:
   GGA     =    PE    GGA type
   LEXCH   =     8    internal setting for exchange type
   VOSKOWN=      0    Vosko Wilk Nusair interpolation
   LHFCALC =     F    Hartree Fock is set to
   LHFONE  =     F    Hartree Fock one center treatment
   AEXX    =    0.0000 exact exchange contribution

 Linear response parameters
   LEPSILON=     F    determine dielectric tensor
   LRPA    =     F    only Hartree local field effects (RPA)
   LNABLA  =     F    use nabla operator in PAW spheres
   LVEL    =     F    velocity operator in full k-point grid
   LINTERFAST=   F  fast interpolation
   KINTER  =     0    interpolate to denser k-point grid
   CSHIFT  =0.1000    complex shift for real part using Kramers Kronig
   OMEGAMAX=  -1.0    maximum frequency
   DEG_THRESHOLD= 0.2000000E-02 threshold for treating states as degnerate
   RTIME   =    0.100 relaxation time in fs

 Orbital magnetization related:
   ORBITALMAG=     F  switch on orbital magnetization
   LCHIMAG   =     F  perturbation theory with respect to B field
   DQ        =  0.001000  dq finite difference perturbation B field



--------------------------------------------------------------------------------------------------------


 Static calculation
 charge density and potential will be updated during run
 non-spin polarized calculation
 Variant of blocked Davidson
 Davidson routine will perform the subspace rotation
 perform sub-space diagonalisation
    after iterative eigenvector-optimisation
 modified Broyden-mixing scheme, WC =      100.0
 initial mixing is a Kerker type mixing with AMIX =  0.4000 and BMIX =      1.0000
 Hartree-type preconditioning will be used
 using additional bands            4
 reciprocal scheme for non local part
 use partial core corrections
 calculate Harris-corrections to forces 
   (improved forces if not selfconsistent)
 use gradient corrections 
 use of overlap-Matrix (Vanderbilt PP)
 Fermi-smearing in eV        SIGMA  =   0.03


--------------------------------------------------------------------------------------------------------


  energy-cutoff  :      600.00
  volume of cell :       35.07
      direct lattice vectors                 reciprocal lattice vectors
     0.000000000  2.598076211  2.598076211    -0.192450090  0.192450090  0.192450090
     2.598076211  0.000000000  2.598076211     0.192450090 -0.192450090  0.192450090
     2.598076211  2.598076211  0.000000000     0.192450090  0.192450090 -0.192450090

  length of vectors
     3.674234614  3.674234614  3.674234614     0.333333333  0.333333333  0.333333333


 
 k-points in units of 2pi/SCALE and weight: Gamma centered Monkhorst-Pack           
   0.00000000  0.00000000  0.00000000       0.001
  -0.08333333  0.08333333  0.08333333       0.005
  -0.16666667  0.16666667  0.16666667       0.005
  -0.25000000  0.25000000  0.25000000       0.005
  -0.33333333  0.33333333  0.33333333       0.005
  -0.41666667  0.41666667  0.41666667       0.005
  -0.50000000  0.50000000  0.50000000       0.002
   0.00000000  0.00000000  0.16666667       0.003
  -0.08333333  0.08333333  0.25000000       0.014
  -0.16666667  0.16666667  0.33333333       0.014
  -0.25000000  0.25000000  0.41666667       0.014
  -0.33333333  0.33333333  0.50000000       0.014
  -0.41666667  0.41666667  0.58333333       0.014
   0.50000000 -0.50000000 -0.33333333       0.014
   0.41666667 -0.41666667 -0.25000000       0.014
   0.33333333 -0.33333333 -0.16666667       0.014
   0.25000000 -0.25000000 -0.08333333       0.014
   0.16666667 -0.16666667  0.00000000       0.007
   0.00000000  0.00000000  0.33333333       0.003
  -0.08333333  0.08333333  0.41666667       0.014
  -0.16666667  0.16666667  0.50000000       0.014
  -0.25000000  0.25000000  0.58333333       0.014
  -0.33333333  0.33333333  0.66666667       0.014
   0.58333333 -0.58333333 -0.25000000       0.014
   0.50000000 -0.50000000 -0.16666667       0.014
   0.41666667 -0.41666667 -0.08333333       0.014
   0.33333333 -0.33333333  0.00000000       0.007
   0.00000000  0.00000000  0.50000000       0.003
  -0.08333333  0.08333333  0.58333333       0.014
  -0.16666667  0.16666667  0.66666667       0.014
  -0.25000000  0.25000000  0.75000000       0.014
   0.66666667 -0.66666667 -0.16666667       0.014
   0.58333333 -0.58333333 -0.08333333       0.014
   0.50000000 -0.50000000  0.00000000       0.007
   0.00000000  0.00000000  0.66666667       0.003
  -0.08333333  0.08333333  0.75000000       0.014
  -0.16666667  0.16666667  0.83333333       0.014
   0.75000000 -0.75000000 -0.08333333       0.014
   0.66666667 -0.66666667  0.00000000       0.007
   0.00000000  0.00000000  0.83333333       0.003
  -0.08333333  0.08333333  0.91666667       0.014
   0.83333333 -0.83333333  0.00000000       0.007
   0.00000000  0.00000000  1.00000000       0.002
   0.00000000  0.16666667  0.33333333       0.014
  -0.08333333  0.25000000  0.41666667       0.028
  -0.16666667  0.33333333  0.50000000       0.028
  -0.25000000  0.41666667  0.58333333       0.028
   0.66666667 -0.50000000 -0.33333333       0.014
   0.00000000  0.16666667  0.50000000       0.014
  -0.08333333  0.25000000  0.58333333       0.028
  -0.16666667  0.33333333  0.66666667       0.028
   0.75000000 -0.58333333 -0.25000000       0.028
   0.66666667 -0.50000000 -0.16666667       0.028
   0.58333333 -0.41666667 -0.08333333       0.028
   0.50000000 -0.33333333  0.00000000       0.014
  -0.00000000  0.16666667  0.66666667       0.014
  -0.08333333  0.25000000  0.75000000       0.028
   0.83333333 -0.66666667 -0.16666667       0.028
   0.75000000 -0.58333333 -0.08333333       0.028
   0.66666667 -0.50000000  0.00000000       0.014
   0.00000000  0.16666667  0.83333333       0.014
   0.91666667 -0.75000000 -0.08333333       0.028
   0.83333333 -0.66666667  0.00000000       0.014
   1.00000000 -0.83333333  0.00000000       0.007
   0.00000000  0.33333333  0.66666667       0.014
   0.91666667 -0.58333333 -0.25000000       0.028
   0.83333333 -0.50000000 -0.16666667       0.014
   1.00000000 -0.66666667 -0.16666667       0.014
   0.91666667 -0.58333333 -0.08333333       0.028
   0.83333333 -0.50000000  0.00000000       0.014
   1.00000000 -0.66666667  0.00000000       0.007
   1.00000000 -0.50000000  0.00000000       0.003
 
 k-points in reciprocal lattice and weights: Gamma centered Monkhorst-Pack           
   0.00000000  0.00000000  0.00000000       0.001
   0.08333333  0.00000000  0.00000000       0.005
   0.16666667  0.00000000  0.00000000       0.005
   0.25000000  0.00000000  0.00000000       0.005
   0.33333333  0.00000000  0.00000000       0.005
   0.41666667  0.00000000  0.00000000       0.005
   0.50000000  0.00000000  0.00000000       0.002
   0.08333333  0.08333333  0.00000000       0.003
   0.16666667  0.08333333  0.00000000       0.014
   0.25000000  0.08333333  0.00000000       0.014
   0.33333333  0.08333333  0.00000000       0.014
   0.41666667  0.08333333  0.00000000       0.014
   0.50000000  0.08333333  0.00000000       0.014
  -0.41666667  0.08333333  0.00000000       0.014
  -0.33333333  0.08333333  0.00000000       0.014
  -0.25000000  0.08333333  0.00000000       0.014
  -0.16666667  0.08333333  0.00000000       0.014
  -0.08333333  0.08333333  0.00000000       0.007
   0.16666667  0.16666667  0.00000000       0.003
   0.25000000  0.16666667  0.00000000       0.014
   0.33333333  0.16666667  0.00000000       0.014
   0.41666667  0.16666667  0.00000000       0.014
   0.50000000  0.16666667  0.00000000       0.014
  -0.41666667  0.16666667  0.00000000       0.014
  -0.33333333  0.16666667  0.00000000       0.014
  -0.25000000  0.16666667  0.00000000       0.014
  -0.16666667  0.16666667  0.00000000       0.007
   0.25000000  0.25000000  0.00000000       0.003
   0.33333333  0.25000000  0.00000000       0.014
   0.41666667  0.25000000  0.00000000       0.014
   0.50000000  0.25000000  0.00000000       0.014
  -0.41666667  0.25000000  0.00000000       0.014
  -0.33333333  0.25000000  0.00000000       0.014
  -0.25000000  0.25000000  0.00000000       0.007
   0.33333333  0.33333333  0.00000000       0.003
   0.41666667  0.33333333  0.00000000       0.014
   0.50000000  0.33333333  0.00000000       0.014
  -0.41666667  0.33333333  0.00000000       0.014
  -0.33333333  0.33333333  0.00000000       0.007
   0.41666667  0.41666667  0.00000000       0.003
   0.50000000  0.41666667  0.00000000       0.014
  -0.41666667  0.41666667  0.00000000       0.007
   0.50000000  0.50000000  0.00000000       0.002
   0.25000000  0.16666667  0.08333333       0.014
   0.33333333  0.16666667  0.08333333       0.028
   0.41666667  0.16666667  0.08333333       0.028
   0.50000000  0.16666667  0.08333333       0.028
  -0.41666667  0.16666667  0.08333333       0.014
   0.33333333  0.25000000  0.08333333       0.014
   0.41666667  0.25000000  0.08333333       0.028
   0.50000000  0.25000000  0.08333333       0.028
  -0.41666667  0.25000000  0.08333333       0.028
  -0.33333333  0.25000000  0.08333333       0.028
  -0.25000000  0.25000000  0.08333333       0.028
  -0.16666667  0.25000000  0.08333333       0.014
   0.41666667  0.33333333  0.08333333       0.014
   0.50000000  0.33333333  0.08333333       0.028
  -0.41666667  0.33333333  0.08333333       0.028
  -0.33333333  0.33333333  0.08333333       0.028
  -0.25000000  0.33333333  0.08333333       0.014
   0.50000000  0.41666667  0.08333333       0.014
  -0.41666667  0.41666667  0.08333333       0.028
  -0.33333333  0.41666667  0.08333333       0.014
  -0.41666667  0.50000000  0.08333333       0.007
   0.50000000  0.33333333  0.16666667       0.014
  -0.41666667  0.33333333  0.16666667       0.028
  -0.33333333  0.33333333  0.16666667       0.014
  -0.41666667  0.41666667  0.16666667       0.014
  -0.33333333  0.41666667  0.16666667       0.028
  -0.25000000  0.41666667  0.16666667       0.014
  -0.33333333  0.50000000  0.16666667       0.007
  -0.25000000  0.50000000  0.25000000       0.003
 
 position of ions in fractional coordinates (direct lattice) 
   0.00000000  0.00000000  0.00000000
   0.25000000  0.25000000  0.25000000
 
 position of ions in cartesian coordinates  (Angst):
   0.00000000  0.00000000  0.00000000
   1.29903811  1.29903811  1.29903811
 


--------------------------------------------------------------------------------------------------------


 k-point  1 :   0.0000 0.0000 0.0000  plane waves:    1211
 k-point  2 :   0.0833 0.0000 0.0000  plane waves:    1203
 k-point  3 :   0.1667 0.0000 0.0000  plane waves:    1173
 k-point  4 :   0.2500 0.0000 0.0000  plane waves:    1179
 k-point  5 :   0.3333 0.0000 0.0000  plane waves:    1167
 k-point  6 :   0.4167 0.0000 0.0000  plane waves:    1170
 k-point  7 :   0.5000 0.0000 0.0000  plane waves:    1170
 k-point  8 :   0.0833 0.0833 0.0000  plane waves:    1199
 k-point  9 :   0.1667 0.0833 0.0000  plane waves:    1179
 k-point 10 :   0.2500 0.0833 0.0000  plane waves:    1176
 k-point 11 :   0.3333 0.0833 0.0000  plane waves:    1170
 k-point 12 :   0.4167 0.0833 0.0000  plane waves:    1165
 k-point 13 :   0.5000 0.0833 0.0000  plane waves:    1174
 k-point 14 :  -0.4167 0.0833 0.0000  plane waves:    1173
 k-point 15 :  -0.3333 0.0833 0.0000  plane waves:    1163
 k-point 16 :  -0.2500 0.0833 0.0000  plane waves:    1178
 k-point 17 :  -0.1667 0.0833 0.0000  plane waves:    1176
 k-point 18 :  -0.0833 0.0833 0.0000  plane waves:    1183
 k-point 19 :   0.1667 0.1667 0.0000  plane waves:    1171
 k-point 20 :   0.2500 0.1667 0.0000  plane waves:    1173
 k-point 21 :   0.3333 0.1667 0.0000  plane waves:    1176
 k-point 22 :   0.4167 0.1667 0.0000  plane waves:    1173
 k-point 23 :   0.5000 0.1667 0.0000  plane waves:    1177
 k-point 24 :  -0.4167 0.1667 0.0000  plane waves:    1167
 k-point 25 :  -0.3333 0.1667 0.0000  plane waves:    1166
 k-point 26 :  -0.2500 0.1667 0.0000  plane waves:    1172
 k-point 27 :  -0.1667 0.1667 0.0000  plane waves:    1175
 k-point 28 :   0.2500 0.2500 0.0000  plane waves:    1174
 k-point 29 :   0.3333 0.2500 0.0000  plane waves:    1173
 k-point 30 :   0.4167 0.2500 0.0000  plane waves:    1176
 k-point 31 :   0.5000 0.2500 0.0000  plane waves:    1172
 k-point 32 :  -0.4167 0.2500 0.0000  plane waves:    1168
 k-point 33 :  -0.3333 0.2500 0.0000  plane waves:    1165
 k-point 34 :  -0.2500 0.2500 0.0000  plane waves:    1171
 k-point 35 :   0.3333 0.3333 0.0000  plane waves:    1174
 k-point 36 :   0.4167 0.3333 0.0000  plane waves:    1175
 k-point 37 :   0.5000 0.3333 0.0000  plane waves:    1169
 k-point 38 :  -0.4167 0.3333 0.0000  plane waves:    1158
 k-point 39 :  -0.3333 0.3333 0.0000  plane waves:    1152
 k-point 40 :   0.4167 0.4167 0.0000  plane waves:    1170
 k-point 41 :   0.5000 0.4167 0.0000  plane waves:    1168
 k-point 42 :  -0.4167 0.4167 0.0000  plane waves:    1156
 k-point 43 :   0.5000 0.5000 0.0000  plane waves:    1162
 k-point 44 :   0.2500 0.1667 0.0833  plane waves:    1180
 k-point 45 :   0.3333 0.1667 0.0833  plane waves:    1175
 k-point 46 :   0.4167 0.1667 0.0833  plane waves:    1164
 k-point 47 :   0.5000 0.1667 0.0833  plane waves:    1165
 k-point 48 :  -0.4167 0.1667 0.0833  plane waves:    1178
 k-point 49 :   0.3333 0.2500 0.0833  plane waves:    1175
 k-point 50 :   0.4167 0.2500 0.0833  plane waves:    1171
 k-point 51 :   0.5000 0.2500 0.0833  plane waves:    1165
 k-point 52 :  -0.4167 0.2500 0.0833  plane waves:    1170
 k-point 53 :  -0.3333 0.2500 0.0833  plane waves:    1162
 k-point 54 :  -0.2500 0.2500 0.0833  plane waves:    1165
 k-point 55 :  -0.1667 0.2500 0.0833  plane waves:    1174
 k-point 56 :   0.4167 0.3333 0.0833  plane waves:    1164
 k-point 57 :   0.5000 0.3333 0.0833  plane waves:    1176
 k-point 58 :  -0.4167 0.3333 0.0833  plane waves:    1171
 k-point 59 :  -0.3333 0.3333 0.0833  plane waves:    1167
 k-point 60 :  -0.2500 0.3333 0.0833  plane waves:    1166
 k-point 61 :   0.5000 0.4167 0.0833  plane waves:    1164
 k-point 62 :  -0.4167 0.4167 0.0833  plane waves:    1169
 k-point 63 :  -0.3333 0.4167 0.0833  plane waves:    1161
 k-point 64 :  -0.4167 0.5000 0.0833  plane waves:    1170
 k-point 65 :   0.5000 0.3333 0.1667  plane waves:    1173
 k-point 66 :  -0.4167 0.3333 0.1667  plane waves:    1168
 k-point 67 :  -0.3333 0.3333 0.1667  plane waves:    1176
 k-point 68 :  -0.4167 0.4167 0.1667  plane waves:    1180
 k-point 69 :  -0.3333 0.4167 0.1667  plane waves:    1169
 k-point 70 :  -0.2500 0.4167 0.1667  plane waves:    1176
 k-point 71 :  -0.3333 0.5000 0.1667  plane waves:    1166
 k-point 72 :  -0.2500 0.5000 0.2500  plane waves:    1176

 maximum and minimum number of plane-waves per node :      1211     1152

 maximum number of plane-waves:      1211
 maximum index in each direction: 
   IXMAX=    7   IYMAX=    7   IZMAX=    7
   IXMIN=   -7   IYMIN=   -7   IZMIN=   -7

 WARNING: aliasing errors must be expected set NGX to  30 to avoid them
 WARNING: aliasing errors must be expected set NGY to  30 to avoid them
 WARNING: aliasing errors must be expected set NGZ to  30 to avoid them
 aliasing errors are usually negligible using standard VASP settings
 and one can safely disregard these warnings

 serial   3D FFT for wavefunctions
 parallel 3D FFT for charge:
    minimum data exchange during FFTs selected (reduces bandwidth)


 total amount of memory used by VASP on root node    41409. kBytes
========================================================================

   base      :      30000. kBytes
   nonl-proj :       5623. kBytes
   fftplans  :       1025. kBytes
   grid      :       1926. kBytes
   one-center:          6. kBytes
   wavefun   :       2829. kBytes
 
     INWAV:  cpu time    0.00: real time    0.00
 Broyden mixing: mesh for mixing (old mesh)
   NGX = 15   NGY = 15   NGZ = 15
  (NGX  = 48   NGY  = 48   NGZ  = 48)
  gives a total of   3375 points

 initial charge density was supplied:
 charge density of overlapping atoms calculated
 number of electron       8.0000000 magnetization 
 keeping initial charge density in first step


--------------------------------------------------------------------------------------------------------


 Maximum index for augmentation-charges         3159 (set IRDMAX)


--------------------------------------------------------------------------------------------------------


 First call to EWALD:  gamma=   0.541
 Maximum number of real-space cells 3x 3x 3
 Maximum number of reciprocal cells 3x 3x 3

 FEWALD executed in parallel
    FEWALD:  cpu time    0.00: real time    0.00


----------------------------------------- Iteration    1(   1)  ---------------------------------------


    POTLOK:  cpu time    0.01: real time    0.02
    SETDIJ:  cpu time    0.00: real time    0.00
     EDDAV:  cpu time    0.23: real time    0.25
       DOS:  cpu time    0.00: real time    0.00
    --------------------------------------------
      LOOP:  cpu time    0.24: real time    0.27

 eigenvalue-minimisations  :  1160
 total energy-change (2. order) : 0.8594490E+01  (-0.3717689E+03)
 number of electron       8.0000000 magnetization 
 augmentation part        8.0000000 magnetization 

 Free energy of the ion-electron system (eV)
  ---------------------------------------------------
  alpha Z        PSCENC =         3.83908886
  Ewald energy   TEWEN  =      -238.84979489
  -Hartree energ DENC   =        -9.11019995
  -exchange      EXHF   =         0.00000000
  -V(xc)+E(xc)   XCENC  =       -18.06180262
  PAW double counting   =        65.95520812      -30.76852678
  entropy T*S    EENTRO =        -0.00156995
  eigenvalues    EBANDS =        29.45896859
  atomic energy  EATOM  =       206.13311910
  ---------------------------------------------------
  free energy    TOTEN  =         8.59449048 eV

  energy without entropy =        8.59606043  energy(sigma->0) =        8.59527546


--------------------------------------------------------------------------------------------------------




----------------------------------------- Iteration    1(   2)  ---------------------------------------


     EDDAV:  cpu time    0.34: real time    0.38
       DOS:  cpu time    0.00: real time    0.00
    --------------------------------------------
      LOOP:  cpu time    0.34: real time    0.38

 eigenvalue-minimisations  :  1776
 total energy-change (2. order) :-0.1916687E+02  (-0.1830089E+02)
 number of electron       8.0000000 magnetization 
 augmentation part        8.0000000 magnetization 

 Free energy of the ion-electron system (eV)
  ---------------------------------------------------
  alpha Z        PSCENC =         3.83908886
  Ewald energy   TEWEN  =      -238.84979489
  -Hartree energ DENC   =        -9.11019995
  -exchange      EXHF   =         0.00000000
  -V(xc)+E(xc)   XCENC  =       -18.06180262
  PAW double counting   =        65.95520812      -30.76852678
  entropy T*S    EENTRO =        -0.00000008
  eigenvalues    EBANDS =        10.29053026
  atomic energy  EATOM  =       206.13311910
  ---------------------------------------------------
  free energy    TOTEN  =       -10.57237797 eV

  energy without entropy =      -10.57237789  energy(sigma->0) =      -10.57237793


--------------------------------------------------------------------------------------------------------




----------------------------------------- Iteration    1(   3)  ---------------------------------------


     EDDAV:  cpu time    0.28: real time    0.33
       DOS:  cpu time    0.00: real time    0.00
    --------------------------------------------
      LOOP:  cpu time    0.28: real time    0.33

 eigenvalue-minimisations  :  1440
 total energy-change (2. order) :-0.2461957E+00  (-0.2461957E+00)
 number of electron       8.0000000 magnetization 
 augmentation part        8.0000000 magnetization 

 Free energy of the ion-electron system (eV)
  ---------------------------------------------------
  alpha Z        PSCENC =         3.83908886
  Ewald energy   TEWEN  =      -238.84979489
  -Hartree energ DENC   =        -9.11019995
  -exchange      EXHF   =         0.00000000
  -V(xc)+E(xc)   XCENC  =       -18.06180262
  PAW double counting   =        65.95520812      -30.76852678
  entropy T*S    EENTRO =        -0.00000000
  eigenvalues    EBANDS =        10.04433446
  atomic energy  EATOM  =       206.13311910
  ---------------------------------------------------
  free energy    TOTEN  =       -10.81857369 eV

  energy without entropy =      -10.81857369  energy(sigma->0) =      -10.81857369


--------------------------------------------------------------------------------------------------------




----------------------------------------- Iteration    1(   4)  ---------------------------------------


     EDDAV:  cpu time    0.35: real time    0.37
       DOS:  cpu time    0.00: real time    0.00
    --------------------------------------------
      LOOP:  cpu time    0.35: real time    0.38

 eigenvalue-minimisations  :  1848
 total energy-change (2. order) :-0.1262130E-02  (-0.1262130E-02)
 number of electron       8.0000000 magnetization 
 augmentation part        8.0000000 magnetization 

 Free energy of the ion-electron system (eV)
  ---------------------------------------------------
  alpha Z        PSCENC =         3.83908886
  Ewald energy   TEWEN  =      -238.84979489
  -Hartree energ DENC   =        -9.11019995
  -exchange      EXHF   =         0.00000000
  -V(xc)+E(xc)   XCENC  =       -18.06180262
  PAW double counting   =        65.95520812      -30.76852678
  entropy T*S    EENTRO =        -0.00000000
  eigenvalues    EBANDS =        10.04307233
  atomic energy  EATOM  =       206.13311910
  ---------------------------------------------------
  free energy    TOTEN  =       -10.81983582 eV

  energy without entropy =      -10.81983582  energy(sigma->0) =      -10.81983582


--------------------------------------------------------------------------------------------------------




----------------------------------------- Iteration    1(   5)  ---------------------------------------


     EDDAV:  cpu time    0.30: real time    0.33
       DOS:  cpu time    0.00: real time    0.00
    CHARGE:  cpu time    0.02: real time    0.02
    MIXING:  cpu time    0.00: real time    0.00
    --------------------------------------------
      LOOP:  cpu time    0.32: real time    0.35

 eigenvalue-minimisations  :  1560
 total energy-change (2. order) :-0.1076890E-05  (-0.1075567E-05)
 number of electron       8.0000001 magnetization 
 augmentation part       -0.4812955 magnetization 

 Broyden mixing:
  rms(total) = 0.33548E+00    rms(broyden)= 0.33548E+00
  rms(prec ) = 0.10072E+01
  weight for this iteration     100.00

 Free energy of the ion-electron system (eV)
  ---------------------------------------------------
  alpha Z        PSCENC =         3.83908886
  Ewald energy   TEWEN  =      -238.84979489
  -Hartree energ DENC   =        -9.11019995
  -exchange      EXHF   =         0.00000000
  -V(xc)+E(xc)   XCENC  =       -18.06180262
  PAW double counting   =        65.95520812      -30.76852678
  entropy T*S    EENTRO =        -0.00000000
  eigenvalues    EBANDS =        10.04307126
  atomic energy  EATOM  =       206.13311910
  ---------------------------------------------------
  free energy    TOTEN  =       -10.81983690 eV

  energy without entropy =      -10.81983690  energy(sigma->0) =      -10.81983690


--------------------------------------------------------------------------------------------------------




----------------------------------------- Iteration    1(   6)  ---------------------------------------


    POTLOK:  cpu time    0.01: real time    0.01
    SETDIJ:  cpu time    0.00: real time    0.00
     EDDAV:  cpu time    0.26: real time    0.27
       DOS:  cpu time    0.00: real time    0.00
    CHARGE:  cpu time    0.02: real time    0.02
    MIXING:  cpu time    0.00: real time    0.00
    --------------------------------------------
      LOOP:  cpu time    0.30: real time    0.31

 eigenvalue-minimisations  :  1336
 total energy-change (2. order) : 0.1908187E+00  (-0.1363861E-01)
 number of electron       8.0000001 magnetization 
 augmentation part       -0.4734536 magnetization 

 Broyden mixing:
  rms(total) = 0.19449E+00    rms(broyden)= 0.19449E+00
  rms(prec ) = 0.57764E+00
  weight for this iteration     100.00

 eigenvalues of (default mixing * dielectric matrix)
  average eigenvalue GAMMA=   2.3575
  2.3575

 Free energy of the ion-electron system (eV)
  ---------------------------------------------------
  alpha Z        PSCENC =         3.83908886
  Ewald energy   TEWEN  =      -238.84979489
  -Hartree energ DENC   =       -10.79514340
  -exchange      EXHF   =         0.00000000
  -V(xc)+E(xc)   XCENC  =       -17.78918716
  PAW double counting   =        71.99443520      -36.97707017
  entropy T*S    EENTRO =        -0.00000010
  eigenvalues    EBANDS =        11.81553439
  atomic energy  EATOM  =       206.13311910
  ---------------------------------------------------
  free energy    TOTEN  =       -10.62901816 eV

  energy without entropy =      -10.62901806  energy(sigma->0) =      -10.62901811


--------------------------------------------------------------------------------------------------------




----------------------------------------- Iteration    1(   7)  ---------------------------------------


    POTLOK:  cpu time    0.02: real time    0.02
    SETDIJ:  cpu time    0.00: real time    0.00
     EDDAV:  cpu time    0.30: real time    0.32
       DOS:  cpu time    0.00: real time    0.00
    CHARGE:  cpu time    0.02: real time    0.02
    MIXING:  cpu time    0.00: real time    0.00
    --------------------------------------------
      LOOP:  cpu time    0.34: real time    0.36

 eigenvalue-minimisations  :  1448
 total energy-change (2. order) : 0.8009941E-01  (-0.2210507E-01)
 number of electron       8.0000001 magnetization 
 augmentation part       -0.4642886 magnetization 

 Broyden mixing:
  rms(total) = 0.18162E-01    rms(broyden)= 0.18162E-01
  rms(prec ) = 0.47785E-01
  weight for this iteration     100.00

 eigenvalues of (default mixing * dielectric matrix)
  average eigenvalue GAMMA=   2.4245
  2.4245  2.4245

 Free energy of the ion-electron system (eV)
  ---------------------------------------------------
  alpha Z        PSCENC =         3.83908886
  Ewald energy   TEWEN  =      -238.84979489
  -Hartree energ DENC   =       -13.36382494
  -exchange      EXHF   =         0.00000000
  -V(xc)+E(xc)   XCENC  =       -17.36494772
  PAW double counting   =        80.11625423      -45.31543853
  entropy T*S    EENTRO =        -0.00000653
  eigenvalues    EBANDS =        14.25663166
  atomic energy  EATOM  =       206.13311910
  ---------------------------------------------------
  free energy    TOTEN  =       -10.54891875 eV

  energy without entropy =      -10.54891222  energy(sigma->0) =      -10.54891548


--------------------------------------------------------------------------------------------------------




----------------------------------------- Iteration    1(   8)  ---------------------------------------


    POTLOK:  cpu time    0.01: real time    0.01
    SETDIJ:  cpu time    0.00: real time    0.00
     EDDAV:  cpu time    0.28: real time    0.31
       DOS:  cpu time    0.00: real time    0.00
    CHARGE:  cpu time    0.02: real time    0.02
    MIXING:  cpu time    0.00: real time    0.00
    --------------------------------------------
      LOOP:  cpu time    0.31: real time    0.35

 eigenvalue-minimisations  :  1400
 total energy-change (2. order) :-0.1343410E-02  (-0.5293226E-03)
 number of electron       8.0000001 magnetization 
 augmentation part       -0.4654186 magnetization 

 Broyden mixing:
  rms(total) = 0.25526E-02    rms(broyden)= 0.25525E-02
  rms(prec ) = 0.84968E-02
  weight for this iteration     100.00

 eigenvalues of (default mixing * dielectric matrix)
  average eigenvalue GAMMA=   2.0936
  1.4082  2.7540  2.1185

 Free energy of the ion-electron system (eV)
  ---------------------------------------------------
  alpha Z        PSCENC =         3.83908886
  Ewald energy   TEWEN  =      -238.84979489
  -Hartree energ DENC   =       -13.33987940
  -exchange      EXHF   =         0.00000000
  -V(xc)+E(xc)   XCENC  =       -17.34732334
  PAW double counting   =        79.29425384      -44.46472795
  entropy T*S    EENTRO =        -0.00000423
  eigenvalues    EBANDS =        14.18500583
  atomic energy  EATOM  =       206.13311910
  ---------------------------------------------------
  free energy    TOTEN  =       -10.55026216 eV

  energy without entropy =      -10.55025793  energy(sigma->0) =      -10.55026005


--------------------------------------------------------------------------------------------------------




----------------------------------------- Iteration    1(   9)  ---------------------------------------


    POTLOK:  cpu time    0.02: real time    0.02
    SETDIJ:  cpu time    0.00: real time    0.00
     EDDAV:  cpu time    0.33: real time    0.33
       DOS:  cpu time    0.00: real time    0.00
    CHARGE:  cpu time    0.02: real time    0.02
    MIXING:  cpu time    0.00: real time    0.00
    --------------------------------------------
      LOOP:  cpu time    0.36: real time    0.37

 eigenvalue-minimisations  :  1720
 total energy-change (2. order) :-0.6812156E-04  (-0.8682009E-05)
 number of electron       8.0000001 magnetization 
 augmentation part       -0.4654382 magnetization 

 Broyden mixing:
  rms(total) = 0.15089E-02    rms(broyden)= 0.15089E-02
  rms(prec ) = 0.36617E-02
  weight for this iteration     100.00

 eigenvalues of (default mixing * dielectric matrix)
  average eigenvalue GAMMA=   2.1533
  0.9805  2.9269  2.4832  2.2225

 Free energy of the ion-electron system (eV)
  ---------------------------------------------------
  alpha Z        PSCENC =         3.83908886
  Ewald energy   TEWEN  =      -238.84979489
  -Hartree energ DENC   =       -13.37801237
  -exchange      EXHF   =         0.00000000
  -V(xc)+E(xc)   XCENC  =       -17.34051108
  PAW double counting   =        79.33095721      -44.50265539
  entropy T*S    EENTRO =        -0.00000426
  eigenvalues    EBANDS =        14.21748253
  atomic energy  EATOM  =       206.13311910
  ---------------------------------------------------
  free energy    TOTEN  =       -10.55033028 eV

  energy without entropy =      -10.55032603  energy(sigma->0) =      -10.55032815


--------------------------------------------------------------------------------------------------------




----------------------------------------- Iteration    1(  10)  ---------------------------------------


    POTLOK:  cpu time    0.01: real time    0.01
    SETDIJ:  cpu time    0.00: real time    0.00
     EDDAV:  cpu time    0.28: real time    0.28
       DOS:  cpu time    0.00: real time    0.00
    CHARGE:  cpu time    0.02: real time    0.02
    MIXING:  cpu time    0.00: real time    0.00
    --------------------------------------------
      LOOP:  cpu time    0.30: real time    0.32

 eigenvalue-minimisations  :  1392
 total energy-change (2. order) :-0.1699187E-04  (-0.2204078E-05)
 number of electron       8.0000001 magnetization 
 augmentation part       -0.4653936 magnetization 

 Broyden mixing:
  rms(total) = 0.14709E-03    rms(broyden)= 0.14709E-03
  rms(prec ) = 0.39537E-03
  weight for this iteration     100.00

 eigenvalues of (default mixing * dielectric matrix)
  average eigenvalue GAMMA=   1.9864
  3.0628  2.5819  2.1373  0.9891  1.1610

 Free energy of the ion-electron system (eV)
  ---------------------------------------------------
  alpha Z        PSCENC =         3.83908886
  Ewald energy   TEWEN  =      -238.84979489
  -Hartree energ DENC   =       -13.38653390
  -exchange      EXHF   =         0.00000000
  -V(xc)+E(xc)   XCENC  =       -17.34052345
  PAW double counting   =        79.30333582      -44.47541549
  entropy T*S    EENTRO =        -0.00000419
  eigenvalues    EBANDS =        14.22638086
  atomic energy  EATOM  =       206.13311910
  ---------------------------------------------------
  free energy    TOTEN  =       -10.55034727 eV

  energy without entropy =      -10.55034308  energy(sigma->0) =      -10.55034518


--------------------------------------------------------------------------------------------------------




----------------------------------------- Iteration    1(  11)  ---------------------------------------


    POTLOK:  cpu time    0.01: real time    0.01
    SETDIJ:  cpu time    0.00: real time    0.00
     EDDAV:  cpu time    0.34: real time    0.35
       DOS:  cpu time    0.00: real time    0.00
    CHARGE:  cpu time    0.02: real time    0.02
    MIXING:  cpu time    0.00: real time    0.00
    --------------------------------------------
      LOOP:  cpu time    0.37: real time    0.38

 eigenvalue-minimisations  :  1784
 total energy-change (2. order) : 0.4752854E-06  (-0.4104214E-07)
 number of electron       8.0000001 magnetization 
 augmentation part       -0.4654058 magnetization 

 Broyden mixing:
  rms(total) = 0.54002E-04    rms(broyden)= 0.54002E-04
  rms(prec ) = 0.10624E-03
  weight for this iteration     100.00

 eigenvalues of (default mixing * dielectric matrix)
  average eigenvalue GAMMA=   2.0999
  3.1169  2.7622  2.5745  2.1424  0.9815  1.0218

 Free energy of the ion-electron system (eV)
  ---------------------------------------------------
  alpha Z        PSCENC =         3.83908886
  Ewald energy   TEWEN  =      -238.84979489
  -Hartree energ DENC   =       -13.38482870
  -exchange      EXHF   =         0.00000000
  -V(xc)+E(xc)   XCENC  =       -17.34067710
  PAW double counting   =        79.29440606      -44.46611237
  entropy T*S    EENTRO =        -0.00000417
  eigenvalues    EBANDS =        14.22445639
  atomic energy  EATOM  =       206.13311910
  ---------------------------------------------------
  free energy    TOTEN  =       -10.55034680 eV

  energy without entropy =      -10.55034263  energy(sigma->0) =      -10.55034471


--------------------------------------------------------------------------------------------------------




----------------------------------------- Iteration    1(  12)  ---------------------------------------


    POTLOK:  cpu time    0.02: real time    0.01
    SETDIJ:  cpu time    0.00: real time    0.00
     EDDAV:  cpu time    0.30: real time    0.31
       DOS:  cpu time    0.00: real time    0.00
    CHARGE:  cpu time    0.02: real time    0.02
    MIXING:  cpu time    0.00: real time    0.00
    --------------------------------------------
      LOOP:  cpu time    0.34: real time    0.35

 eigenvalue-minimisations  :  1560
 total energy-change (2. order) : 0.1024770E-07  (-0.3176723E-08)
 number of electron       8.0000001 magnetization 
 augmentation part       -0.4654033 magnetization 

 Broyden mixing:
  rms(total) = 0.46613E-05    rms(broyden)= 0.46613E-05
  rms(prec ) = 0.14415E-04
  weight for this iteration     100.00

 eigenvalues of (default mixing * dielectric matrix)
  average eigenvalue GAMMA=   1.9793
  3.1672  2.6675  2.4180  2.2036  0.9767  1.0440  1.3783

 Free energy of the ion-electron system (eV)
  ---------------------------------------------------
  alpha Z        PSCENC =         3.83908886
  Ewald energy   TEWEN  =      -238.84979489
  -Hartree energ DENC   =       -13.38524205
  -exchange      EXHF   =         0.00000000
  -V(xc)+E(xc)   XCENC  =       -17.34065912
  PAW double counting   =        79.29701546      -44.46868694
  entropy T*S    EENTRO =        -0.00000417
  eigenvalues    EBANDS =        14.22481695
  atomic energy  EATOM  =       206.13311910
  ---------------------------------------------------
  free energy    TOTEN  =       -10.55034679 eV

  energy without entropy =      -10.55034261  energy(sigma->0) =      -10.55034470


--------------------------------------------------------------------------------------------------------




----------------------------------------- Iteration    1(  13)  ---------------------------------------


    POTLOK:  cpu time    0.01: real time    0.01
    SETDIJ:  cpu time    0.00: real time    0.00
     EDDAV:  cpu time    0.34: real time    0.35
       DOS:  cpu time    0.00: real time    0.00
    CHARGE:  cpu time    0.02: real time    0.02
    MIXING:  cpu time    0.00: real time    0.00
    --------------------------------------------
      LOOP:  cpu time    0.38: real time    0.39

 eigenvalue-minimisations  :  1816
 total energy-change (2. order) : 0.9370581E-08  (-0.3856437E-10)
 number of electron       8.0000001 magnetization 
 augmentation part       -0.4654036 magnetization 

 Broyden mixing:
  rms(total) = 0.16477E-05    rms(broyden)= 0.16477E-05
  rms(prec ) = 0.24885E-05
  weight for this iteration     100.00

 eigenvalues of (default mixing * dielectric matrix)
  average eigenvalue GAMMA=   2.0328
  3.1735  2.1544  2.7462  2.7341  2.4790  1.0008  1.0008  0.9733

 Free energy of the ion-electron system (eV)
  ---------------------------------------------------
  alpha Z        PSCENC =         3.83908886
  Ewald energy   TEWEN  =      -238.84979489
  -Hartree energ DENC   =       -13.38517933
  -exchange      EXHF   =         0.00000000
  -V(xc)+E(xc)   XCENC  =       -17.34066379
  PAW double counting   =        79.29668073      -44.46834658
  entropy T*S    EENTRO =        -0.00000417
  eigenvalues    EBANDS =        14.22475329
  atomic energy  EATOM  =       206.13311910
  ---------------------------------------------------
  free energy    TOTEN  =       -10.55034678 eV

  energy without entropy =      -10.55034261  energy(sigma->0) =      -10.55034469


--------------------------------------------------------------------------------------------------------




----------------------------------------- Iteration    1(  14)  ---------------------------------------


    POTLOK:  cpu time    0.01: real time    0.01
    SETDIJ:  cpu time    0.00: real time    0.00
     EDDAV:  cpu time    0.25: real time    0.25
       DOS:  cpu time    0.00: real time    0.00
    CHARGE:  cpu time    0.02: real time    0.02
    MIXING:  cpu time    0.00: real time    0.00
    --------------------------------------------
      LOOP:  cpu time    0.28: real time    0.29

 eigenvalue-minimisations  :  1168
 total energy-change (2. order) :-0.4921731E-08  (-0.4384919E-11)
 number of electron       8.0000001 magnetization 
 augmentation part       -0.4654036 magnetization 

 Broyden mixing:
  rms(total) = 0.15373E-06    rms(broyden)= 0.15372E-06
  rms(prec ) = 0.34670E-06
  weight for this iteration     100.00

 eigenvalues of (default mixing * dielectric matrix)
  average eigenvalue GAMMA=   1.9092
  3.1582  2.1583  2.8377  2.6487  2.4940  0.9823  1.0136  1.0136  0.8767

 Free energy of the ion-electron system (eV)
  ---------------------------------------------------
  alpha Z        PSCENC =         3.83908886
  Ewald energy   TEWEN  =      -238.84979489
  -Hartree energ DENC   =       -13.38517927
  -exchange      EXHF   =         0.00000000
  -V(xc)+E(xc)   XCENC  =       -17.34066303
  PAW double counting   =        79.29664094      -44.46831125
  entropy T*S    EENTRO =        -0.00000417
  eigenvalues    EBANDS =        14.22475692
  atomic energy  EATOM  =       206.13311910
  ---------------------------------------------------
  free energy    TOTEN  =       -10.55034678 eV

  energy without entropy =      -10.55034261  energy(sigma->0) =      -10.55034470


--------------------------------------------------------------------------------------------------------




----------------------------------------- Iteration    1(  15)  ---------------------------------------


    POTLOK:  cpu time    0.01: real time    0.01
    SETDIJ:  cpu time    0.00: real time    0.00
     EDDAV:  cpu time    0.21: real time    0.21
       DOS:  cpu time    0.00: real time    0.00
    CHARGE:  cpu time    0.02: real time    0.02
    MIXING:  cpu time    0.00: real time    0.00
    --------------------------------------------
      LOOP:  cpu time    0.24: real time    0.25

 eigenvalue-minimisations  :   936
 total energy-change (2. order) :-0.6935750E-09  (-0.7891298E-13)
 number of electron       8.0000001 magnetization 
 augmentation part       -0.4654036 magnetization 

 Broyden mixing:
  rms(total) = 0.40366E-07    rms(broyden)= 0.40358E-07
  rms(prec ) = 0.66961E-07
  weight for this iteration     100.00

 eigenvalues of (default mixing * dielectric matrix)
  average eigenvalue GAMMA=   1.9900
  3.1382  2.1559  2.8498  2.6383  2.6383  2.4949  1.0116  0.9930  0.9930  0.9870

 Free energy of the ion-electron system (eV)
  ---------------------------------------------------
  alpha Z        PSCENC =         3.83908886
  Ewald energy   TEWEN  =      -238.84979489
  -Hartree energ DENC   =       -13.38517909
  -exchange      EXHF   =         0.00000000
  -V(xc)+E(xc)   XCENC  =       -17.34066317
  PAW double counting   =        79.29664518      -44.46831583
  entropy T*S    EENTRO =        -0.00000417
  eigenvalues    EBANDS =        14.22475721
  atomic energy  EATOM  =       206.13311910
  ---------------------------------------------------
  free energy    TOTEN  =       -10.55034678 eV

  energy without entropy =      -10.55034261  energy(sigma->0) =      -10.55034470


--------------------------------------------------------------------------------------------------------




----------------------------------------- Iteration    1(  16)  ---------------------------------------


    POTLOK:  cpu time    0.01: real time    0.01
    SETDIJ:  cpu time    0.00: real time    0.00
     EDDAV:  cpu time    0.19: real time    0.20
       DOS:  cpu time    0.00: real time    0.00
    CHARGE:  cpu time    0.02: real time    0.02
    MIXING:  cpu time    0.00: real time    0.00
    --------------------------------------------
      LOOP:  cpu time    0.22: real time    0.24

 eigenvalue-minimisations  :   848
 total energy-change (2. order) : 0.3288392E-09  (-0.6747518E-13)
 number of electron       8.0000001 magnetization 
 augmentation part       -0.4654036 magnetization 

 Broyden mixing:
  rms(total) = 0.91904E-08    rms(broyden)= 0.91553E-08
  rms(prec ) = 0.26229E-07
  weight for this iteration     100.00

 eigenvalues of (default mixing * dielectric matrix)
  average eigenvalue GAMMA=   1.9073
  3.1562  2.1568  2.9229  2.7293  2.6371  2.4990  1.0070  0.9826  0.9826  0.9534
  0.9534

 Free energy of the ion-electron system (eV)
  ---------------------------------------------------
  alpha Z        PSCENC =         3.83908886
  Ewald energy   TEWEN  =      -238.84979489
  -Hartree energ DENC   =       -13.38517892
  -exchange      EXHF   =         0.00000000
  -V(xc)+E(xc)   XCENC  =       -17.34066321
  PAW double counting   =        79.29664641      -44.46831695
  entropy T*S    EENTRO =        -0.00000417
  eigenvalues    EBANDS =        14.22475698
  atomic energy  EATOM  =       206.13311910
  ---------------------------------------------------
  free energy    TOTEN  =       -10.55034678 eV

  energy without entropy =      -10.55034261  energy(sigma->0) =      -10.55034470


--------------------------------------------------------------------------------------------------------




----------------------------------------- Iteration    1(  17)  ---------------------------------------


    POTLOK:  cpu time    0.01: real time    0.01
    SETDIJ:  cpu time    0.00: real time    0.00
     EDDAV:  cpu time    0.18: real time    0.19
       DOS:  cpu time    0.00: real time    0.00
    CHARGE:  cpu time    0.02: real time    0.02
    MIXING:  cpu time    0.00: real time    0.00
    --------------------------------------------
      LOOP:  cpu time    0.22: real time    0.23

 eigenvalue-minimisations  :   792
 total energy-change (2. order) :-0.3221317E-09  (-0.2584818E-13)
 number of electron       8.0000001 magnetization 
 augmentation part       -0.4654036 magnetization 

 Broyden mixing:
  rms(total) = 0.22397E-08    rms(broyden)= 0.20911E-08
  rms(prec ) = 0.40256E-08
  weight for this iteration     100.00

 eigenvalues of (default mixing * dielectric matrix)
  average eigenvalue GAMMA=   1.8641
  3.1537  2.8918  2.7192  2.5785  2.5217  2.1569  1.0134  0.9685  0.9868  0.9868
  1.1961  1.1961

 Free energy of the ion-electron system (eV)
  ---------------------------------------------------
  alpha Z        PSCENC =         3.83908886
  Ewald energy   TEWEN  =      -238.84979489
  -Hartree energ DENC   =       -13.38517898
  -exchange      EXHF   =         0.00000000
  -V(xc)+E(xc)   XCENC  =       -17.34066321
  PAW double counting   =        79.29664625      -44.46831678
  entropy T*S    EENTRO =        -0.00000417
  eigenvalues    EBANDS =        14.22475702
  atomic energy  EATOM  =       206.13311910
  ---------------------------------------------------
  free energy    TOTEN  =       -10.55034678 eV

  energy without entropy =      -10.55034261  energy(sigma->0) =      -10.55034470


--------------------------------------------------------------------------------------------------------




----------------------------------------- Iteration    1(  18)  ---------------------------------------


    POTLOK:  cpu time    0.01: real time    0.01
    SETDIJ:  cpu time    0.00: real time    0.00
     EDDAV:  cpu time    0.18: real time    0.18
       DOS:  cpu time    0.00: real time    0.00
    --------------------------------------------
      LOOP:  cpu time    0.19: real time    0.20

 eigenvalue-minimisations  :   736
 total energy-change (2. order) :-0.6582468E-10  (-0.1191593E-12)
 number of electron       8.0000001 magnetization 
 augmentation part       -0.4654036 magnetization 

 Free energy of the ion-electron system (eV)
  ---------------------------------------------------
  alpha Z        PSCENC =         3.83908886
  Ewald energy   TEWEN  =      -238.84979489
  -Hartree energ DENC   =       -13.38517898
  -exchange      EXHF   =         0.00000000
  -V(xc)+E(xc)   XCENC  =       -17.34066320
  PAW double counting   =        79.29664626      -44.46831679
  entropy T*S    EENTRO =        -0.00000417
  eigenvalues    EBANDS =        14.22475702
  atomic energy  EATOM  =       206.13311910
  ---------------------------------------------------
  free energy    TOTEN  =       -10.55034678 eV

  energy without entropy =      -10.55034261  energy(sigma->0) =      -10.55034470


--------------------------------------------------------------------------------------------------------




 average (electrostatic) potential at core
  the test charge radii are     0.9892
  (the norm of the test charge is              1.0000)
       1 -81.7002       2 -81.7002
 
 
 
 E-fermi :   7.3938     XC(G=0):  -9.9364     alpha+bet :-13.6765


 k-point     1 :       0.0000    0.0000    0.0000
  band No.  band energies     occupation 
      1      -5.6731      2.00000
      2       7.2501      1.99363
      3       7.2501      1.99363
      4       7.2501      1.99363
      5       9.8581      0.00000
      6       9.8581      0.00000
      7       9.8581      0.00000
      8      12.2182      0.00000

 k-point     2 :       0.0833    0.0000    0.0000
  band No.  band energies     occupation 
      1      -5.5713      2.00000
      2       6.3655      2.00000
      3       7.0850      1.99999
      4       7.0850      1.99999
      5      10.0514      0.00000
      6      10.1009      0.00000
      7      10.1009      0.00000
      8      12.7317      0.00000

 k-point     3 :       0.1667    0.0000    0.0000
  band No.  band energies     occupation 
      1      -5.2685      2.00000
      2       4.7341      2.00000
      3       6.7419      2.00000
      4       6.7419      2.00000
      5       9.9756      0.00000
      6      10.5812      0.00000
      7      10.5812      0.00000
      8      13.9901      0.00000

 k-point     4 :       0.2500    0.0000    0.0000
  band No.  band energies     occupation 
      1      -4.7750      2.00000
      2       3.0426      2.00000
      3       6.4043      2.00000
      4       6.4043      2.00000
      5       9.7153      0.00000
      6      10.8453      0.00000
      7      10.8453      0.00000
      8      14.4877      0.00000

 k-point     5 :       0.3333    0.0000    0.0000
  band No.  band energies     occupation 
      1      -4.1188      2.00000
      2       1.4821      2.00000
      3       6.1464      2.00000
      4       6.1464      2.00000
      5       9.4726      0.00000
      6      10.7544      0.00000
      7      10.7544      0.00000
      8      15.4272      0.00000

 k-point     6 :       0.4167    0.0000    0.0000
  band No.  band energies     occupation 
      1      -3.3945      2.00000
      2       0.2012      2.00000
      3       5.9895      2.00000
      4       5.9895      2.00000
      5       9.3145      0.00000
      6      10.5742      0.00000
      7      10.5742      0.00000
      8      15.2410      0.00000

 k-point     7 :       0.5000    0.0000    0.0000
  band No.  band energies     occupation 
      1      -2.9841      2.00000
      2      -0.3966      2.00000
      3       5.9372      2.00000
      4       5.9372      2.00000
      5       9.2604      0.00000
      6      10.4971      0.00000
      7      10.4971      0.00000
      8      15.1279      0.00000

 k-point     8 :       0.0833    0.0833    0.0000
  band No.  band energies     occupation 
      1      -5.5372      2.00000
      2       6.6363      2.00000
      3       6.7453      2.00000
      4       6.7453      2.00000
      5       9.5498      0.00000
      6      10.5282      0.00000
      7      10.5282      0.00000
      8      12.7087      0.00000

 k-point     9 :       0.1667    0.0833    0.0000
  band No.  band energies     occupation 
      1      -5.3010      2.00000
      2       5.2665      2.00000
      3       6.3339      2.00000
      4       6.6163      2.00000
      5       9.5908      0.00000
      6      10.8242      0.00000
      7      11.1289      0.00000
      8      12.8594      0.00000

 k-point    10 :       0.2500    0.0833    0.0000
  band No.  band energies     occupation 
      1      -4.8697      2.00000
      2       3.6160      2.00000
      3       5.9902      2.00000
      4       6.2671      2.00000
      5       9.8413      0.00000
      6      10.8015      0.00000
      7      11.5102      0.00000
      8      12.7857      0.00000

 k-point    11 :       0.3333    0.0833    0.0000
  band No.  band energies     occupation 
      1      -4.2631      2.00000
      2       2.0225      2.00000
      3       5.7668      2.00000
      4       5.8812      2.00000
      5       9.8201      0.00000
      6      10.7022      0.00000
      7      11.4432      0.00000
      8      13.3978      0.00000

 k-point    12 :       0.4167    0.0833    0.0000
  band No.  band energies     occupation 
      1      -3.5415      2.00000
      2       0.6369      2.00000
      3       5.5528      2.00000
      4       5.6788      2.00000
      5       9.7059      0.00000
      6      10.5551      0.00000
      7      11.1581      0.00000
      8      14.5890      0.00000

 k-point    13 :       0.5000    0.0833    0.0000
  band No.  band energies     occupation 
      1      -2.9494      2.00000
      2      -0.2620      2.00000
      3       5.3187      2.00000
      4       5.7245      2.00000
      5       9.6664      0.00000
      6      10.5011      0.00000
      7      10.9049      0.00000
      8      15.4834      0.00000

 k-point    14 :      -0.4167    0.0833    0.0000
  band No.  band energies     occupation 
      1      -3.0989      2.00000
      2      -0.0500      2.00000
      3       5.2001      2.00000
      4       5.8924      2.00000
      5       9.7350      0.00000
      6      10.6004      0.00000
      7      10.7816      0.00000
      8      15.5859      0.00000

 k-point    15 :      -0.3333    0.0833    0.0000
  band No.  band energies     occupation 
      1      -3.7881      2.00000
      2       1.0683      2.00000
      3       5.2130      2.00000
      4       6.1639      2.00000
      5       9.8959      0.00000
      6      10.7843      0.00000
      7      10.8413      0.00000
      8      14.9850      0.00000

 k-point    16 :      -0.2500    0.0833    0.0000
  band No.  band energies     occupation 
      1      -4.4835      2.00000
      2       2.5401      2.00000
      3       5.3696      2.00000
      4       6.5101      2.00000
      5      10.1230      0.00000
      6      10.7794      0.00000
      7      11.0840      0.00000
      8      13.9038      0.00000

 k-point    17 :      -0.1667    0.0833    0.0000
  band No.  band energies     occupation 
      1      -5.0350      2.00000
      2       4.1577      2.00000
      3       5.6817      2.00000
      4       6.8757      2.00000
      5      10.3609      0.00000
      6      10.5169      0.00000
      7      10.9766      0.00000
      8      13.5996      0.00000

 k-point    18 :      -0.0833    0.0833    0.0000
  band No.  band energies     occupation 
      1      -5.4023      2.00000
      2       5.6376      2.00000
      3       6.2411      2.00000
      4       7.1329      1.99994
      5      10.1313      0.00000
      6      10.3506      0.00000
      7      10.5326      0.00000
      8      13.3041      0.00000

 k-point    19 :       0.1667    0.1667    0.0000
  band No.  band energies     occupation 
      1      -5.1315      2.00000
      2       5.3063      2.00000
      3       5.8799      2.00000
      4       5.8799      2.00000
      5       8.8908      0.00000
      6      11.8598      0.00000
      7      11.8792      0.00000
      8      11.8792      0.00000

 k-point    20 :       0.2500    0.1667    0.0000
  band No.  band energies     occupation 
      1      -4.7647      2.00000
      2       4.0652      2.00000
      3       5.5085      2.00000
      4       5.5516      2.00000
      5       8.9154      0.00000
      6      11.2660      0.00000
      7      12.2436      0.00000
      8      12.4801      0.00000

 k-point    21 :       0.3333    0.1667    0.0000
  band No.  band energies     occupation 
      1      -4.2143      2.00000
      2       2.5791      2.00000
      3       5.0718      2.00000
      4       5.2714      2.00000
      5       9.1660      0.00000
      6      11.4123      0.00000
      7      12.1648      0.00000
      8      12.5782      0.00000

 k-point    22 :       0.4167    0.1667    0.0000
  band No.  band energies     occupation 
      1      -3.5197      2.00000
      2       1.1775      2.00000
      3       4.5894      2.00000
      4       5.1865      2.00000
      5       9.1965      0.00000
      6      11.8410      0.00000
      7      12.2983      0.00000
      8      12.5855      0.00000

 k-point    23 :       0.5000    0.1667    0.0000
  band No.  band energies     occupation 
      1      -2.8298      2.00000
      2       0.0930      2.00000
      3       4.2012      2.00000
      4       5.2559      2.00000
      5       9.2440      0.00000
      6      11.7254      0.00000
      7      11.9569      0.00000
      8      14.0592      0.00000

 k-point    24 :      -0.4167    0.1667    0.0000
  band No.  band energies     occupation 
      1      -2.6868      2.00000
      2      -0.1016      2.00000
      3       3.9487      2.00000
      4       5.4705      2.00000
      5       9.4439      0.00000
      6      11.6536      0.00000
      7      11.7008      0.00000
      8      15.7510      0.00000

 k-point    25 :      -0.3333    0.1667    0.0000
  band No.  band energies     occupation 
      1      -3.2860      2.00000
      2       0.7899      2.00000
      3       3.8607      2.00000
      4       5.8091      2.00000
      5       9.8008      0.00000
      6      11.5525      0.00000
      7      11.6619      0.00000
      8      14.7158      0.00000

 k-point    26 :      -0.2500    0.1667    0.0000
  band No.  band energies     occupation 
      1      -4.0051      2.00000
      2       2.1045      2.00000
      3       3.9797      2.00000
      4       6.2293      2.00000
[...]
      8      15.5253      0.00000

 k-point    37 :       0.5000    0.3333    0.0000
  band No.  band energies     occupation 
      1      -2.2178      2.00000
      2       0.3769      2.00000
      3       3.0859      2.00000
      4       4.3711      2.00000
      5       8.0705      0.00000
      6       9.9056      0.00000
      7      15.1323      0.00000
      8      15.4769      0.00000

 k-point    38 :      -0.4167    0.3333    0.0000
  band No.  band energies     occupation 
      1      -1.6502      2.00000
      2      -0.2031      2.00000
      3       2.4079      2.00000
      4       4.5466      2.00000
      5       8.2686      0.00000
      6      11.4862      0.00000
      7      14.7562      0.00000
      8      15.3072      0.00000

 k-point    39 :      -0.3333    0.3333    0.0000
  band No.  band energies     occupation 
      1      -1.9544      2.00000
      2       0.1074      2.00000
      3       2.1746      2.00000
      4       4.8742      2.00000
      5       8.6497      0.00000
      6      13.1541      0.00000
      7      14.1732      0.00000
      8      14.9872      0.00000

 k-point    40 :       0.4167    0.4167    0.0000
  band No.  band energies     occupation 
      1      -2.3852      2.00000
      2       0.4937      2.00000
      3       4.1580      2.00000
      4       4.1580      2.00000
      5       7.5541      0.00328
      6       8.1280      0.00000
      7      16.8111      0.00000
      8      16.8111      0.00000

 k-point    41 :       0.5000    0.4167    0.0000
  band No.  band energies     occupation 
      1      -1.6915      2.00000
      2      -0.2722      2.00000
      3       3.6356      2.00000
      4       4.1219      2.00000
      5       7.7444      0.00000
      6       8.3755      0.00000
      7      17.0087      0.00000
      8      17.2600      0.00000

 k-point    42 :      -0.4167    0.4167    0.0000
  band No.  band energies     occupation 
      1      -1.1403      2.00000
      2      -0.7409      2.00000
      3       2.8283      2.00000
      4       4.2544      2.00000
      5       7.9160      0.00000
      6       9.7303      0.00000
      7      16.4953      0.00000
      8      16.9560      0.00000

 k-point    43 :       0.5000    0.5000    0.0000
  band No.  band energies     occupation 
      1      -1.0256      2.00000
      2      -1.0256      2.00000
      3       4.0371      2.00000
      4       4.0371      2.00000
      5       7.6617      0.00004
      6       7.6617      0.00004
      7      18.5436      0.00000
      8      18.5442      0.00000

 k-point    44 :       0.2500    0.1667    0.0833
  band No.  band energies     occupation 
      1      -4.9998      2.00000
      2       4.4655      2.00000
      3       5.3687      2.00000
      4       6.4931      2.00000
      5       9.6102      0.00000
      6      11.2534      0.00000
      7      11.6630      0.00000
      8      12.2781      0.00000

 k-point    45 :       0.3333    0.1667    0.0833
  band No.  band energies     occupation 
      1      -4.5085      2.00000
      2       3.0809      2.00000
      3       4.8102      2.00000
      4       6.1776      2.00000
      5       9.9429      0.00000
      6      11.1455      0.00000
      7      12.0751      0.00000
      8      12.1901      0.00000

 k-point    46 :       0.4167    0.1667    0.0833
  band No.  band energies     occupation 
      1      -3.8547      2.00000
      2       1.6103      2.00000
      3       4.5515      2.00000
      4       5.7973      2.00000
      5      10.0498      0.00000
      6      10.8037      0.00000
      7      12.1097      0.00000
      8      12.9780      0.00000

 k-point    47 :       0.5000    0.1667    0.0833
  band No.  band energies     occupation 
      1      -3.1303      2.00000
      2       0.3629      2.00000
      3       4.4390      2.00000
      4       5.5057      2.00000
      5      10.0680      0.00000
      6      10.4533      0.00000
      7      11.9915      0.00000
      8      14.3602      0.00000

 k-point    48 :      -0.4167    0.1667    0.0833
  band No.  band energies     occupation 
      1      -2.7162      2.00000
      2      -0.2293      2.00000
      3       4.4115      2.00000
      4       5.3950      2.00000
      5      10.1499      0.00000
      6      10.2376      0.00000
      7      11.9376      0.00000
      8      15.8444      0.00000

 k-point    49 :       0.3333    0.2500    0.0833
  band No.  band energies     occupation 
      1      -4.3366      2.00000
      2       3.2437      2.00000
      3       4.5897      2.00000
      4       5.4304      2.00000
      5       8.9861      0.00000
      6      10.7348      0.00000
      7      12.4567      0.00000
      8      13.2986      0.00000

 k-point    50 :       0.4167    0.2500    0.0833
  band No.  band energies     occupation 
      1      -3.7342      2.00000
      2       2.0579      2.00000
      3       4.0170      2.00000
      4       5.0842      2.00000
      5       9.3277      0.00000
      6      10.9582      0.00000
      7      12.2062      0.00000
      8      13.7006      0.00000

 k-point    51 :       0.5000    0.2500    0.0833
  band No.  band energies     occupation 
      1      -3.0147      2.00000
      2       0.8378      2.00000
      3       3.6577      2.00000
      4       4.8295      2.00000
      5       9.4298      0.00000
      6      11.5794      0.00000
      7      12.3618      0.00000
      8      13.6912      0.00000

 k-point    52 :      -0.4167    0.2500    0.0833
  band No.  band energies     occupation 
      1      -2.4183      2.00000
      2      -0.0030      2.00000
      3       3.3923      2.00000
      4       4.8079      2.00000
      5       9.5746      0.00000
      6      11.3555      0.00000
      7      13.4096      0.00000
      8      14.0420      0.00000

 k-point    53 :      -0.3333    0.2500    0.0833
  band No.  band energies     occupation 
      1      -2.5823      2.00000
      2       0.2207      2.00000
      3       3.2418      2.00000
      4       5.0122      2.00000
      5       9.8736      0.00000
      6      11.1380      0.00000
      7      13.4259      0.00000
      8      14.2753      0.00000

 k-point    54 :      -0.2500    0.2500    0.0833
  band No.  band energies     occupation 
      1      -3.2765      2.00000
      2       1.2528      2.00000
      3       3.2829      2.00000
      4       5.3835      2.00000
      5      10.3163      0.00000
      6      10.9744      0.00000
      7      12.8006      0.00000
      8      13.3604      0.00000

 k-point    55 :      -0.1667    0.2500    0.0833
  band No.  band energies     occupation 
      1      -3.9650      2.00000
      2       2.3670      2.00000
      3       3.7112      2.00000
      4       5.8314      2.00000
      5      10.5679      0.00000
      6      10.8255      0.00000
      7      12.0352      0.00000
      8      12.9427      0.00000

 k-point    56 :       0.4167    0.3333    0.0833
  band No.  band energies     occupation 
      1      -3.4262      2.00000
      2       1.9066      2.00000
      3       4.0193      2.00000
      4       4.5048      2.00000
      5       8.5211      0.00000
      6       9.5524      0.00000
      7      13.7959      0.00000
      8      15.0268      0.00000

 k-point    57 :       0.5000    0.3333    0.0833
  band No.  band energies     occupation 
      1      -2.7363      2.00000
      2       0.9712      2.00000
      3       3.3440      2.00000
      4       4.2478      2.00000
      5       8.8459      0.00000
      6      10.1983      0.00000
      7      13.4481      0.00000
      8      15.4293      0.00000

 k-point    58 :      -0.4167    0.3333    0.0833
  band No.  band energies     occupation 
      1      -2.0440      2.00000
      2       0.1363      2.00000
      3       2.7479      2.00000
      4       4.2610      2.00000
      5       9.0009      0.00000
      6      11.6040      0.00000
      7      13.1311      0.00000
      8      15.3871      0.00000

 k-point    59 :      -0.3333    0.3333    0.0833
  band No.  band energies     occupation 
      1      -1.9461      2.00000
      2       0.0400      2.00000
      3       2.4072      2.00000
      4       4.4924      2.00000
      5       9.2952      0.00000
      6      12.4813      0.00000
      7      13.6118      0.00000
      8      14.4752      0.00000

 k-point    60 :      -0.2500    0.3333    0.0833
  band No.  band energies     occupation 
      1      -2.5766      2.00000
      2       0.7183      2.00000
      3       2.4966      2.00000
      4       4.8914      2.00000
      5       9.7523      0.00000
      6      12.1014      0.00000
      7      13.0297      0.00000
      8      14.4571      0.00000

 k-point    61 :       0.5000    0.4167    0.0833
  band No.  band energies     occupation 
      1      -2.2917      2.00000
      2       0.4628      2.00000
      3       3.6988      2.00000
      4       3.9111      2.00000
      5       8.2989      0.00000
      6       8.7731      0.00000
      7      15.2587      0.00000
      8      16.8045      0.00000

 k-point    62 :      -0.4167    0.4167    0.0833
  band No.  band energies     occupation 
      1      -1.5673      2.00000
      2      -0.2522      2.00000
      3       2.9389      2.00000
      4       3.8652      2.00000
      5       8.5862      0.00000
      6       9.8322      0.00000
      7      14.8888      0.00000
      8      16.5313      0.00000

 k-point    63 :      -0.3333    0.4167    0.0833
  band No.  band energies     occupation 
      1      -1.3525      2.00000
      2      -0.4050      2.00000
      3       2.3467      2.00000
      4       4.0914      2.00000
      5       8.8533      0.00000
      6      11.4898      0.00000
      7      14.4145      0.00000
      8      14.7585      0.00000

 k-point    64 :      -0.4167    0.5000    0.0833
  band No.  band energies     occupation 
      1      -0.9727      2.00000
      2      -0.9727      2.00000
      3       3.6537      2.00000
      4       3.6537      2.00000
      5       8.3691      0.00000
      6       8.3691      0.00000
      7      16.8681      0.00000
      8      16.8681      0.00000

 k-point    65 :       0.5000    0.3333    0.1667
  band No.  band energies     occupation 
      1      -3.0931      2.00000
      2       1.3734      2.00000
      3       3.1741      2.00000
      4       4.6268      2.00000
      5      10.1457      0.00000
      6      10.8500      0.00000
      7      11.8739      0.00000
      8      14.8279      0.00000

 k-point    66 :      -0.4167    0.3333    0.1667
  band No.  band energies     occupation 
      1      -2.3711      2.00000
      2       0.4959      2.00000
      3       2.7968      2.00000
      4       4.2260      2.00000
      5      10.4652      0.00000
      6      11.1265      0.00000
      7      12.2884      0.00000
      8      15.2215      0.00000

 k-point    67 :      -0.3333    0.3333    0.1667
  band No.  band energies     occupation 
      1      -1.9376      2.00000
      2      -0.0215      2.00000
      3       2.7081      2.00000
      4       4.0719      2.00000
      5      10.5182      0.00000
      6      11.0315      0.00000
      7      13.5750      0.00000
      8      14.2822      0.00000

 k-point    68 :      -0.4167    0.4167    0.1667
  band No.  band energies     occupation 
      1      -2.0319      2.00000
      2       0.3118      2.00000
      3       2.9350      2.00000
      4       3.6186      2.00000
      5       9.9245      0.00000
      6      10.2682      0.00000
      7      13.0227      0.00000
      8      16.1187      0.00000

 k-point    69 :      -0.3333    0.4167    0.1667
  band No.  band energies     occupation 
      1      -1.4166      2.00000
      2      -0.2608      2.00000
      3       2.5506      2.00000
      4       3.4437      2.00000
      5      10.2527      0.00000
      6      11.5631      0.00000
      7      12.7621      0.00000
      8      14.1908      0.00000

 k-point    70 :      -0.2500    0.4167    0.1667
  band No.  band energies     occupation 
      1      -1.6772      2.00000
      2      -0.0113      2.00000
      3       2.4067      2.00000
      4       3.7067      2.00000
      5      10.5657      0.00000
      6      11.8425      0.00000
      7      12.5634      0.00000
      8      13.9257      0.00000

 k-point    71 :      -0.3333    0.5000    0.1667
  band No.  band energies     occupation 
      1      -0.8565      2.00000
      2      -0.8565      2.00000
      3       3.0569      2.00000
      4       3.0569      2.00000
      5       9.9553      0.00000
      6       9.9553      0.00000
      7      14.4878      0.00000
      8      14.4878      0.00000

 k-point    72 :      -0.2500    0.5000    0.2500
  band No.  band energies     occupation 
      1      -0.7919      2.00000
      2      -0.7919      2.00000
      3       2.8011      2.00000
      4       2.8011      2.00000
      5      11.4923      0.00000
      6      11.4923      0.00000
      7      12.6955      0.00000
      8      12.6955      0.00000


--------------------------------------------------------------------------------------------------------


 soft charge-density along one line, spin component           1
         0         1         2         3         4         5         6         7         8         9
 total charge-density along one line
 
 pseudopotential strength for first ion, spin component:           1
 18.259  -0.003   0.000   0.000   0.000  -0.000  -0.000  -0.000
 -0.003   0.006  -0.000  -0.000  -0.000   0.000   0.000   0.000
  0.000  -0.000   4.164  -0.000  -0.000  -0.006   0.000   0.000
  0.000  -0.000  -0.000   4.164  -0.000   0.000  -0.006   0.000
  0.000  -0.000  -0.000  -0.000   4.164   0.000   0.000  -0.006
 -0.000   0.000  -0.006   0.000   0.000   0.005  -0.000  -0.000
 -0.000   0.000   0.000  -0.006   0.000  -0.000   0.005  -0.000
 -0.000   0.000   0.000   0.000  -0.006  -0.000  -0.000   0.005
 total augmentation occupancy for first ion, spin component:           1
  1.481  -0.982   0.000   0.000   0.000   0.000   0.000   0.000
 -0.982   1.083   0.000   0.000  -0.000  -0.000  -0.000  -0.000
  0.000  -0.000   1.127   0.000   0.000  -0.675   0.000   0.000
  0.000   0.000   0.000   1.127   0.000   0.000  -0.675   0.000
 -0.000  -0.000   0.000   0.000   1.127   0.000   0.000  -0.675
  0.000  -0.000  -0.675   0.000   0.000   0.477  -0.000   0.000
  0.000  -0.000   0.000  -0.675   0.000   0.000   0.477   0.000
 -0.000  -0.000   0.000   0.000  -0.675   0.000  -0.000   0.477


------------------------ aborting loop because EDIFF is reached ----------------------------------------


    CHARGE:  cpu time    0.02: real time    0.02
    FORLOC:  cpu time    0.00: real time    0.00
    FORNL :  cpu time    0.03: real time    0.04
    STRESS:  cpu time    0.23: real time    0.24
    FORCOR:  cpu time    0.02: real time    0.01
    FORHAR:  cpu time    0.00: real time    0.00
    MIXING:  cpu time    0.00: real time    0.00
    OFIELD:  cpu time    0.00: real time    0.00

  FORCE on cell =-STRESS in cart. coord.  units (eV):
  Direction    XX          YY          ZZ          XY          YZ          ZX
  --------------------------------------------------------------------------------------
  Alpha Z     3.83909     3.83909     3.83909
  Ewald     -79.61663   -79.61663   -79.61663     0.00000    -0.00000     0.00000
  Hartree     4.46173     4.46173     4.46173     0.00000     0.00000     0.00000
  E(xc)     -26.19179   -26.19179   -26.19179    -0.00000    -0.00000    -0.00000
  Local     -27.50372   -27.50372   -27.50372     0.00001     0.00001     0.00001
  n-local    81.86792    83.35423    77.38210     2.55453    -1.54378     0.66680
  augment   -11.76607   -11.76607   -11.76607    -0.00001    -0.00001    -0.00001
  Kinetic    62.34551    58.28035    59.47113     3.58852    -0.39409     1.08381
  Fock        0.00000     0.00000     0.00000     0.00000     0.00000     0.00000
  -------------------------------------------------------------------------------------
  Total       4.12302     4.12302     4.12302    -0.00000    -0.00000    -0.00000
  in kB     188.33905   188.33905   188.33905    -0.00000    -0.00000    -0.00000
  external pressure =      188.34 kB  Pullay stress =        0.00 kB


 VOLUME and BASIS-vectors are now :
 -----------------------------------------------------------------------------
  energy-cutoff  :      600.00
  volume of cell :       35.07
      direct lattice vectors                 reciprocal lattice vectors
     0.000000000  2.598076211  2.598076211    -0.192450090  0.192450090  0.192450090
     2.598076211  0.000000000  2.598076211     0.192450090 -0.192450090  0.192450090
     2.598076211  2.598076211  0.000000000     0.192450090  0.192450090 -0.192450090

  length of vectors
     3.674234614  3.674234614  3.674234614     0.333333333  0.333333333  0.333333333


 FORCES acting on ions
    electron-ion (+dipol)            ewald-force                    non-local-force                 convergence-correction
 -----------------------------------------------------------------------------------------------
   -.128E-07 -.128E-07 -.136E-07   -.188E-14 0.452E-15 -.213E-14   -.208E-16 0.694E-17 -.694E-17   0.102E-13 0.104E-13 0.838E-14
   0.128E-07 0.128E-07 0.136E-07   0.184E-14 -.602E-15 0.226E-14   -.208E-16 -.694E-17 0.694E-17   -.729E-14 -.648E-14 -.485E-14
 -----------------------------------------------------------------------------------------------
   -.385E-13 0.201E-14 0.221E-13   -.385E-16 -.150E-15 0.131E-15   -.416E-16 0.000E+00 0.000E+00   0.292E-14 0.388E-14 0.353E-14
 
 
 POSITION                                       TOTAL-FORCE (eV/Angst)
 -----------------------------------------------------------------------------------
      0.00000      0.00000      0.00000         0.000000      0.000000      0.000000
      1.29904      1.29904      1.29904        -0.000000     -0.000000     -0.000000
 -----------------------------------------------------------------------------------
    total drift:                               -0.000000      0.000000      0.000000


--------------------------------------------------------------------------------------------------------



  FREE ENERGIE OF THE ION-ELECTRON SYSTEM (eV)
  ---------------------------------------------------
  free  energy   TOTEN  =       -10.55034678 eV

  energy  without entropy=      -10.55034261  energy(sigma->0) =      -10.55034470
 


--------------------------------------------------------------------------------------------------------


    POTLOK:  cpu time    0.02: real time    0.02


--------------------------------------------------------------------------------------------------------


 writing wavefunctions
     LOOP+:  cpu time    5.84: real time    6.31
    4ORBIT:  cpu time    0.00: real time    0.00

 total amount of memory used by VASP on root node    41409. kBytes
========================================================================

   base      :      30000. kBytes
   nonl-proj :       5623. kBytes
   fftplans  :       1025. kBytes
   grid      :       1926. kBytes
   one-center:          6. kBytes
   wavefun   :       2829. kBytes
 
  
  
 General timing and accounting informations for this job:
 ========================================================
  
                  Total CPU time used (sec):        6.228
                            User time (sec):        5.964
                          System time (sec):        0.264
                         Elapsed time (sec):        6.850
  
                   Maximum memory used (kb):       47192.
                   Average memory used (kb):           0.
  
                          Minor page faults:         6940
                          Major page faults:            5
                 Voluntary context switches:          649
