 vasp.5.3.5 31Mar14 (build Jun 01 2017 17:55:53) complex                        
  
 executed on             LinuxIFC date 2020.11.10  15:18:29
 running on    4 total cores
 distrk:  each k-point on    4 cores,    1 groups
 distr:  one band on NCORES_PER_BAND=   1 cores,    4 groups


--------------------------------------------------------------------------------------------------------


 INCAR:
 POTCAR:   PAW_PBE Si 05Jan2001                   
 POTCAR:   PAW_PBE Si 05Jan2001                   
   VRHFIN =Si: s2p2                                                             
   LEXCH  = PE                                                                  
   EATOM  =   103.0669 eV,    7.5752 Ry                                         
                                                                                
   TITEL  = PAW_PBE Si 05Jan2001                                                
   LULTRA =        F    use ultrasoft PP ?                                      
   IUNSCR =        1    unscreen: 0-lin 1-nonlin 2-no                           
   RPACOR =    1.500    partial core radius                                     
   POMASS =   28.085; ZVAL   =    4.000    mass and valenz                      
   RCORE  =    1.900    outmost cutoff radius                                   
   RWIGS  =    2.480; RWIGS  =    1.312    wigner-seitz radius (au A)           
   ENMAX  =  245.345; ENMIN  =  184.009 eV                                      
   ICORE  =        2    local potential                                         
   LCOR   =        T    correct aug charges                                     
   LPAW   =        T    paw PP                                                  
   EAUG   =  322.069                                                            
   DEXC   =    -.007                                                            
   RMAX   =    2.944    core radius for proj-oper                               
   RAUG   =    1.300    factor for augmentation sphere                          
   RDEP   =    1.993    radius for radial grids                                 
   QCUT   =   -4.246; QGAM   =    8.493    optimization parameters              
                                                                                
   Description                                                                  
     l     E      TYP  RCUT    TYP  RCUT                                        
     0   .000     23  1.900                                                     
     0   .000     23  1.900                                                     
     1   .000     23  1.900                                                     
     1   .000     23  1.900                                                     
     2   .000      7  1.900                                                     
  local pseudopotential read in
  partial core-charges read in
  atomic valenz-charges read in
  non local Contribution for L=           0  read in
    real space projection operators read in
  non local Contribution for L=           0  read in
    real space projection operators read in
  non local Contribution for L=           1  read in
    real space projection operators read in
  non local Contribution for L=           1  read in
    real space projection operators read in
    PAW grid and wavefunctions read in
 
   number of l-projection  operators is LMAX  =           4
   number of lm-projection operators is LMMAX =           8
 
 PAW_PBE Si 05Jan2001                   :
 energy of atom  1       EATOM= -103.0669
 kinetic energy error for atom=    0.0003 (will be added to EATOM!!)
 
 
 POSCAR: Si
  positions in direct lattice
  velocities in cartesian coordinates
  No initial velocities read in
 exchange correlation table for  LEXCH =        8
   RHO(1)=    0.500       N(1)  =     2000
   RHO(2)=  100.500       N(2)  =     4000
 


--------------------------------------------------------------------------------------------------------


 ion  position               nearest neighbor table
   1  0.000  0.000  0.000-   2 2.65   2 2.65   2 2.65   2 2.65
   2  0.250  0.250  0.250-   1 2.65   1 2.65   1 2.65   1 2.65
 
  LATTYP: Found a face centered cubic cell.
 ALAT       =     6.1199128534
  
  Lattice vectors:
  
 A1 = (   0.0000000000,   3.0599564267,   3.0599564267)
 A2 = (   3.0599564267,   0.0000000000,   3.0599564267)
 A3 = (   3.0599564267,   3.0599564267,   0.0000000000)


Analysis of symmetry for initial positions (statically):
=====================================================================
 Subroutine PRICEL returns:
 Original cell was already a primitive cell.
 

 Routine SETGRP: Setting up the symmetry group for a 
 face centered cubic supercell.


 Subroutine GETGRP returns: Found 48 space group operations
 (whereof 24 operations were pure point group operations)
 out of a pool of 48 trial point group operations.


The static configuration has the point symmetry T_d .
 The point group associated with its full space group is O_h .


Analysis of symmetry for dynamics (positions and initial velocities):
=====================================================================
 Subroutine PRICEL returns:
 Original cell was already a primitive cell.
 

 Routine SETGRP: Setting up the symmetry group for a 
 face centered cubic supercell.


 Subroutine GETGRP returns: Found 48 space group operations
 (whereof 24 operations were pure point group operations)
 out of a pool of 48 trial point group operations.


The dynamic configuration has the point symmetry T_d .
 The point group associated with its full space group is O_h .


Analysis of constrained symmetry for selective dynamics:
=====================================================================
 Subroutine PRICEL returns:
 Original cell was already a primitive cell.
 

 Routine SETGRP: Setting up the symmetry group for a 
 face centered cubic supercell.


 Subroutine GETGRP returns: Found 48 space group operations
 (whereof 24 operations were pure point group operations)
 out of a pool of 48 trial point group operations.


The constrained configuration has the point symmetry T_d .
 The point group associated with its full space group is O_h .
 
 
 KPOINTS: Gamma centered Monkhorst-Pack           

Automatic generation of k-mesh.
Space group operators:
 irot       det(A)        alpha          n_x          n_y          n_z        tau_x        tau_y        tau_z
    1     1.000000     0.000000     1.000000     0.000000     0.000000     0.000000     0.000000     0.000000
    2     1.000000   120.000000    -0.577350    -0.577350    -0.577350     0.000000     0.000000     0.000000
    3     1.000000   120.000000     0.577350     0.577350     0.577350     0.000000     0.000000     0.000000
    4    -1.000000    90.000000     0.000000     0.000000    -1.000000     0.000000     0.000000     0.000000
    5    -1.000000   180.000000     0.000000     0.707107     0.707107     0.000000     0.000000     0.000000
    6    -1.000000    90.000000     0.000000     1.000000     0.000000     0.000000     0.000000     0.000000
    7     1.000000   180.000000     0.000000     0.000000     1.000000     0.000000     0.000000     0.000000
    8     1.000000   120.000000    -0.577350     0.577350     0.577350     0.000000     0.000000     0.000000
    9     1.000000   120.000000    -0.577350     0.577350    -0.577350     0.000000     0.000000     0.000000
   10    -1.000000    90.000000     0.000000     0.000000     1.000000     0.000000     0.000000     0.000000
   11    -1.000000    90.000000    -1.000000     0.000000     0.000000     0.000000     0.000000     0.000000
   12    -1.000000   180.000000     0.707107     0.000000     0.707107     0.000000     0.000000     0.000000
   13     1.000000   120.000000     0.577350    -0.577350     0.577350     0.000000     0.000000     0.000000
   14     1.000000   120.000000    -0.577350    -0.577350     0.577350     0.000000     0.000000     0.000000
   15     1.000000   180.000000     1.000000     0.000000     0.000000     0.000000     0.000000     0.000000
   16    -1.000000    90.000000     0.000000    -1.000000     0.000000     0.000000     0.000000     0.000000
   17    -1.000000   180.000000     0.707107     0.707107     0.000000     0.000000     0.000000     0.000000
   18    -1.000000    90.000000     1.000000     0.000000     0.000000     0.000000     0.000000     0.000000
   19     1.000000   120.000000     0.577350    -0.577350    -0.577350     0.000000     0.000000     0.000000
   20     1.000000   180.000000     0.000000     1.000000     0.000000     0.000000     0.000000     0.000000
   21     1.000000   120.000000     0.577350     0.577350    -0.577350     0.000000     0.000000     0.000000
   22    -1.000000   180.000000     0.000000    -0.707107     0.707107     0.000000     0.000000     0.000000
   23    -1.000000   180.000000     0.707107    -0.707107     0.000000     0.000000     0.000000     0.000000
   24    -1.000000   180.000000     0.707107     0.000000    -0.707107     0.000000     0.000000     0.000000
   25    -1.000000     0.000000     1.000000     0.000000     0.000000     0.250000     0.250000     0.250000
   26    -1.000000   120.000000    -0.577350    -0.577350    -0.577350     0.250000     0.250000     0.250000
   27    -1.000000   120.000000     0.577350     0.577350     0.577350     0.250000     0.250000     0.250000
   28     1.000000    90.000000     0.000000     0.000000    -1.000000     0.250000     0.250000     0.250000
   29     1.000000   180.000000     0.000000     0.707107     0.707107     0.250000     0.250000     0.250000
   30     1.000000    90.000000     0.000000     1.000000     0.000000     0.250000     0.250000     0.250000
   31    -1.000000   180.000000     0.000000     0.000000     1.000000     0.250000     0.250000     0.250000
   32    -1.000000   120.000000    -0.577350     0.577350     0.577350     0.250000     0.250000     0.250000
   33    -1.000000   120.000000    -0.577350     0.577350    -0.577350     0.250000     0.250000     0.250000
   34     1.000000    90.000000     0.000000     0.000000     1.000000     0.250000     0.250000     0.250000
   35     1.000000    90.000000    -1.000000     0.000000     0.000000     0.250000     0.250000     0.250000
   36     1.000000   180.000000     0.707107     0.000000     0.707107     0.250000     0.250000     0.250000
   37    -1.000000   120.000000     0.577350    -0.577350     0.577350     0.250000     0.250000     0.250000
   38    -1.000000   120.000000    -0.577350    -0.577350     0.577350     0.250000     0.250000     0.250000
   39    -1.000000   180.000000     1.000000     0.000000     0.000000     0.250000     0.250000     0.250000
   40     1.000000    90.000000     0.000000    -1.000000     0.000000     0.250000     0.250000     0.250000
   41     1.000000   180.000000     0.707107     0.707107     0.000000     0.250000     0.250000     0.250000
   42     1.000000    90.000000     1.000000     0.000000     0.000000     0.250000     0.250000     0.250000
   43    -1.000000   120.000000     0.577350    -0.577350    -0.577350     0.250000     0.250000     0.250000
   44    -1.000000   180.000000     0.000000     1.000000     0.000000     0.250000     0.250000     0.250000
   45    -1.000000   120.000000     0.577350     0.577350    -0.577350     0.250000     0.250000     0.250000
   46     1.000000   180.000000     0.000000    -0.707107     0.707107     0.250000     0.250000     0.250000
   47     1.000000   180.000000     0.707107    -0.707107     0.000000     0.250000     0.250000     0.250000
   48     1.000000   180.000000     0.707107     0.000000    -0.707107     0.250000     0.250000     0.250000
 
 Subroutine IBZKPT returns following result:
 ===========================================
 
 Found     72 irreducible k-points:
 
 Following reciprocal coordinates:
            Coordinates               Weight
  0.000000  0.000000  0.000000      1.000000
  0.083333  0.000000  0.000000      8.000000
  0.166667  0.000000  0.000000      8.000000
  0.250000  0.000000  0.000000      8.000000
  0.333333  0.000000  0.000000      8.000000
  0.416667  0.000000  0.000000      8.000000
  0.500000  0.000000  0.000000      4.000000
  0.083333  0.083333  0.000000      6.000000
  0.166667  0.083333  0.000000     24.000000
  0.250000  0.083333  0.000000     24.000000
  0.333333  0.083333  0.000000     24.000000
  0.416667  0.083333  0.000000     24.000000
  0.500000  0.083333  0.000000     24.000000
 -0.416667  0.083333  0.000000     24.000000
 -0.333333  0.083333  0.000000     24.000000
 -0.250000  0.083333  0.000000     24.000000
 -0.166667  0.083333  0.000000     24.000000
 -0.083333  0.083333  0.000000     12.000000
  0.166667  0.166667  0.000000      6.000000
  0.250000  0.166667  0.000000     24.000000
  0.333333  0.166667  0.000000     24.000000
  0.416667  0.166667  0.000000     24.000000
  0.500000  0.166667  0.000000     24.000000
 -0.416667  0.166667  0.000000     24.000000
 -0.333333  0.166667  0.000000     24.000000
 -0.250000  0.166667  0.000000     24.000000
 -0.166667  0.166667  0.000000     12.000000
  0.250000  0.250000  0.000000      6.000000
  0.333333  0.250000  0.000000     24.000000
  0.416667  0.250000  0.000000     24.000000
  0.500000  0.250000  0.000000     24.000000
 -0.416667  0.250000  0.000000     24.000000
 -0.333333  0.250000  0.000000     24.000000
 -0.250000  0.250000  0.000000     12.000000
  0.333333  0.333333  0.000000      6.000000
  0.416667  0.333333  0.000000     24.000000
  0.500000  0.333333  0.000000     24.000000
 -0.416667  0.333333  0.000000     24.000000
 -0.333333  0.333333  0.000000     12.000000
  0.416667  0.416667  0.000000      6.000000
  0.500000  0.416667  0.000000     24.000000
 -0.416667  0.416667  0.000000     12.000000
  0.500000  0.500000  0.000000      3.000000
  0.250000  0.166667  0.083333     24.000000
  0.333333  0.166667  0.083333     48.000000
  0.416667  0.166667  0.083333     48.000000
  0.500000  0.166667  0.083333     48.000000
 -0.416667  0.166667  0.083333     24.000000
  0.333333  0.250000  0.083333     24.000000
  0.416667  0.250000  0.083333     48.000000
  0.500000  0.250000  0.083333     48.000000
 -0.416667  0.250000  0.083333     48.000000
 -0.333333  0.250000  0.083333     48.000000
 -0.250000  0.250000  0.083333     48.000000
 -0.166667  0.250000  0.083333     24.000000
  0.416667  0.333333  0.083333     24.000000
  0.500000  0.333333  0.083333     48.000000
 -0.416667  0.333333  0.083333     48.000000
 -0.333333  0.333333  0.083333     48.000000
 -0.250000  0.333333  0.083333     24.000000
  0.500000  0.416667  0.083333     24.000000
 -0.416667  0.416667  0.083333     48.000000
 -0.333333  0.416667  0.083333     24.000000
 -0.416667  0.500000  0.083333     12.000000
  0.500000  0.333333  0.166667     24.000000
 -0.416667  0.333333  0.166667     48.000000
 -0.333333  0.333333  0.166667     24.000000
 -0.416667  0.416667  0.166667     24.000000
 -0.333333  0.416667  0.166667     48.000000
 -0.250000  0.416667  0.166667     24.000000
 -0.333333  0.500000  0.166667     12.000000
 -0.250000  0.500000  0.250000      6.000000
 
 Following cartesian coordinates:
            Coordinates               Weight
  0.000000  0.000000  0.000000      1.000000
 -0.083333  0.083333  0.083333      8.000000
 -0.166667  0.166667  0.166667      8.000000
 -0.250000  0.250000  0.250000      8.000000
 -0.333333  0.333333  0.333333      8.000000
 -0.416667  0.416667  0.416667      8.000000
 -0.500000  0.500000  0.500000      4.000000
  0.000000  0.000000  0.166667      6.000000
 -0.083333  0.083333  0.250000     24.000000
 -0.166667  0.166667  0.333333     24.000000
 -0.250000  0.250000  0.416667     24.000000
 -0.333333  0.333333  0.500000     24.000000
 -0.416667  0.416667  0.583333     24.000000
  0.500000 -0.500000 -0.333333     24.000000
  0.416667 -0.416667 -0.250000     24.000000
  0.333333 -0.333333 -0.166667     24.000000
  0.250000 -0.250000 -0.083333     24.000000
  0.166667 -0.166667  0.000000     12.000000
  0.000000  0.000000  0.333333      6.000000
 -0.083333  0.083333  0.416667     24.000000
 -0.166667  0.166667  0.500000     24.000000
 -0.250000  0.250000  0.583333     24.000000
 -0.333333  0.333333  0.666667     24.000000
  0.583333 -0.583333 -0.250000     24.000000
  0.500000 -0.500000 -0.166667     24.000000
  0.416667 -0.416667 -0.083333     24.000000
  0.333333 -0.333333  0.000000     12.000000
  0.000000  0.000000  0.500000      6.000000
 -0.083333  0.083333  0.583333     24.000000
 -0.166667  0.166667  0.666667     24.000000
 -0.250000  0.250000  0.750000     24.000000
  0.666667 -0.666667 -0.166667     24.000000
  0.583333 -0.583333 -0.083333     24.000000
  0.500000 -0.500000  0.000000     12.000000
  0.000000  0.000000  0.666667      6.000000
 -0.083333  0.083333  0.750000     24.000000
 -0.166667  0.166667  0.833333     24.000000
  0.750000 -0.750000 -0.083333     24.000000
  0.666667 -0.666667  0.000000     12.000000
  0.000000  0.000000  0.833333      6.000000
 -0.083333  0.083333  0.916667     24.000000
  0.833333 -0.833333  0.000000     12.000000
  0.000000  0.000000  1.000000      3.000000
  0.000000  0.166667  0.333333     24.000000
 -0.083333  0.250000  0.416667     48.000000
 -0.166667  0.333333  0.500000     48.000000
 -0.250000  0.416667  0.583333     48.000000
  0.666667 -0.500000 -0.333333     24.000000
 -0.000000  0.166667  0.500000     24.000000
 -0.083333  0.250000  0.583333     48.000000
 -0.166667  0.333333  0.666667     48.000000
  0.750000 -0.583333 -0.250000     48.000000
  0.666667 -0.500000 -0.166667     48.000000
  0.583333 -0.416667 -0.083333     48.000000
  0.500000 -0.333333  0.000000     24.000000
  0.000000  0.166667  0.666667     24.000000
 -0.083333  0.250000  0.750000     48.000000
  0.833333 -0.666667 -0.166667     48.000000
  0.750000 -0.583333 -0.083333     48.000000
  0.666667 -0.500000  0.000000     24.000000
  0.000000  0.166667  0.833333     24.000000
  0.916667 -0.750000 -0.083333     48.000000
  0.833333 -0.666667  0.000000     24.000000
  1.000000 -0.833333  0.000000     12.000000
  0.000000  0.333333  0.666667     24.000000
  0.916667 -0.583333 -0.250000     48.000000
  0.833333 -0.500000 -0.166667     24.000000
  1.000000 -0.666667 -0.166667     24.000000
  0.916667 -0.583333 -0.083333     48.000000
  0.833333 -0.500000  0.000000     24.000000
  1.000000 -0.666667  0.000000     12.000000
  1.000000 -0.500000  0.000000      6.000000
 


--------------------------------------------------------------------------------------------------------




 Dimension of arrays:
   k-points           NKPTS =     72   k-points in BZ     NKDIM =     72   number of bands    NBANDS=      8
   number of dos      NEDOS =    301   number of ions     NIONS =      2
   non local maximal  LDIM  =      4   non local SUM 2l+1 LMDIM =      8
   total plane-waves  NPLWV =  21952
   max r-space proj   IRMAX =      1   max aug-charges    IRDMAX=  13007
   dimension x,y,z NGX =    28 NGY =   28 NGZ =   28
   dimension x,y,z NGXF=    56 NGYF=   56 NGZF=   56
   support grid    NGXF=    56 NGYF=   56 NGZF=   56
   ions per type =               2
 NGX,Y,Z   is equivalent  to a cutoff of  10.76, 10.76, 10.76 a.u.
 NGXF,Y,Z  is equivalent  to a cutoff of  21.51, 21.51, 21.51 a.u.


 I would recommend the setting:
   dimension x,y,z NGX =    26 NGY =   26 NGZ =   26
 SYSTEM =  Si
 POSCAR =  Si

 Startparameter for this run:
   NWRITE =      2    write-flag & timer
   PREC   = normal    normal or accurate (medium, high low for compatibility)
   ISTART =      0    job   : 0-new  1-cont  2-samecut
   ICHARG =      2    charge: 1-file 2-atom 10-const
   ISPIN  =      1    spin polarized calculation?
   LNONCOLLINEAR =      F non collinear calculations
   LSORBIT =      F    spin-orbit coupling
   INIWAV =      1    electr: 0-lowe 1-rand  2-diag
   LASPH  =      F    aspherical Exc in radial PAW
   METAGGA=      F    non-selfconsistent MetaGGA calc.

 Electronic Relaxation 1
   ENCUT  =  600.0 eV  44.10 Ry    6.64 a.u.   8.64  8.64  8.64*2*pi/ulx,y,z
   ENINI  =  600.0     initial cutoff
   ENAUG  = 1200.0 eV  augmentation charge cutoff
   NELM   =    500;   NELMIN=  2; NELMDL= -5     # of ELM steps 
   EDIFF  = 0.1E-09   stopping-criterion for ELM
   LREAL  =      F    real-space projection
   NLSPLINE    = F    spline interpolate recip. space projectors
   LCOMPAT=      F    compatible to vasp.4.4
   GGA_COMPAT  = T    GGA compatible to vasp.4.4-vasp.4.6
   LMAXPAW     = -100 max onsite density
   LMAXMIX     =    2 max onsite mixed and CHGCAR
   VOSKOWN=      0    Vosko Wilk Nusair interpolation
   ROPT   =    0.00000
 Ionic relaxation
   EDIFFG = 0.1E-08   stopping-criterion for IOM
   NSW    =      0    number of steps for IOM
   NBLOCK =      1;   KBLOCK =      1    inner block; outer block 
   IBRION =     -1    ionic relax: 0-MD 1-quasi-New 2-CG
   NFREE  =      0    steps in history (QN), initial steepest desc. (CG)
   ISIF   =      2    stress and relaxation
   IWAVPR =     10    prediction:  0-non 1-charg 2-wave 3-comb
   ISYM   =      2    0-nonsym 1-usesym 2-fastsym
   LCORR  =      T    Harris-Foulkes like correction to forces

   POTIM  = 0.5000    time-step for ionic-motion
   TEIN   =    0.0    initial temperature
   TEBEG  =    0.0;   TEEND  =   0.0 temperature during run
   SMASS  =  -3.00    Nose mass-parameter (am)
   estimated Nose-frequenzy (Omega)   =  0.10E-29 period in steps =****** mass=  -0.428E-27a.u.
   SCALEE = 1.0000    scale energy and forces
   NPACO  =    256;   APACO  = 16.0  distance and # of slots for P.C.
   PSTRESS=    0.0 pullay stress

  Mass of Ions in am
   POMASS =  28.09
  Ionic Valenz
   ZVAL   =   4.00
  Atomic Wigner-Seitz radii
   RWIGS  =  -1.00
  virtual crystal weights 
   VCA    =   1.00
   NELECT =       8.0000    total number of electrons
   NUPDOWN=      -1.0000    fix difference up-down

 DOS related values:
   EMIN   =  10.00;   EMAX   =-10.00  energy-range for DOS
   EFERMI =   0.00
   ISMEAR =    -1;   SIGMA  =   0.03  broadening in eV -4-tet -1-fermi 0-gaus

 Electronic relaxation 2 (details)
   IALGO  =     38    algorithm
   LDIAG  =      T    sub-space diagonalisation (order eigenvalues)
   LSUBROT=      F    optimize rotation matrix (better conditioning)
   TURBO    =      0    0=normal 1=particle mesh
   IRESTART =      0    0=no restart 2=restart with 2 vectors
   NREBOOT  =      0    no. of reboots
   NMIN     =      0    reboot dimension
   EREF     =   0.00    reference energy to select bands
   IMIX   =      4    mixing-type and parameters
     AMIX     =   0.40;   BMIX     =  1.00
     AMIX_MAG =   1.60;   BMIX_MAG =  1.00
     AMIN     =   0.10
     WC   =   100.;   INIMIX=   1;  MIXPRE=   1;  MAXMIX= -45

 Intra band minimization:
   WEIMIN = 0.0000     energy-eigenvalue tresh-hold
   EBREAK =  0.31E-11  absolut break condition
   DEPER  =   0.30     relativ break condition  

   TIME   =   0.40     timestep for ELM

  volume/ion in A,a.u.               =      28.65       193.35
  Fermi-wavevector in a.u.,A,eV,Ry     =   0.849271  1.604889  9.813353  0.721261
  Thomas-Fermi vector in A             =   1.965065
 
 Write flags
   LWAVE  =      T    write WAVECAR
   LCHARG =      T    write CHGCAR
   LVTOT  =      F    write LOCPOT, total local potential
   LVHAR  =      F    write LOCPOT, Hartree potential only
   LELF   =      F    write electronic localiz. function (ELF)
   LORBIT =      0    0 simple, 1 ext, 2 COOP (PROOUT)


 Dipole corrections
   LMONO  =      F    monopole corrections only (constant potential shift)
   LDIPOL =      F    correct potential (dipole corrections)
   IDIPOL =      0    1-x, 2-y, 3-z, 4-all directions 
   EPSILON=  1.0000000 bulk dielectric constant

 Exchange correlation treatment:
   GGA     =    PE    GGA type
   LEXCH   =     8    internal setting for exchange type
   VOSKOWN=      0    Vosko Wilk Nusair interpolation
   LHFCALC =     F    Hartree Fock is set to
   LHFONE  =     F    Hartree Fock one center treatment
   AEXX    =    0.0000 exact exchange contribution

 Linear response parameters
   LEPSILON=     F    determine dielectric tensor
   LRPA    =     F    only Hartree local field effects (RPA)
   LNABLA  =     F    use nabla operator in PAW spheres
   LVEL    =     F    velocity operator in full k-point grid
   LINTERFAST=   F  fast interpolation
   KINTER  =     0    interpolate to denser k-point grid
   CSHIFT  =0.1000    complex shift for real part using Kramers Kronig
   OMEGAMAX=  -1.0    maximum frequency
   DEG_THRESHOLD= 0.2000000E-02 threshold for treating states as degnerate
   RTIME   =    0.100 relaxation time in fs

 Orbital magnetization related:
   ORBITALMAG=     F  switch on orbital magnetization
   LCHIMAG   =     F  perturbation theory with respect to B field
   DQ        =  0.001000  dq finite difference perturbation B field



--------------------------------------------------------------------------------------------------------


 Static calculation
 charge density and potential will be updated during run
 non-spin polarized calculation
 Variant of blocked Davidson
 Davidson routine will perform the subspace rotation
 perform sub-space diagonalisation
    after iterative eigenvector-optimisation
 modified Broyden-mixing scheme, WC =      100.0
 initial mixing is a Kerker type mixing with AMIX =  0.4000 and BMIX =      1.0000
 Hartree-type preconditioning will be used
 using additional bands            4
 reciprocal scheme for non local part
 use partial core corrections
 calculate Harris-corrections to forces 
   (improved forces if not selfconsistent)
 use gradient corrections 
 use of overlap-Matrix (Vanderbilt PP)
 Fermi-smearing in eV        SIGMA  =   0.03


--------------------------------------------------------------------------------------------------------


  energy-cutoff  :      600.00
  volume of cell :       57.30
      direct lattice vectors                 reciprocal lattice vectors
     0.000000000  3.059956427  3.059956427    -0.163401020  0.163401020  0.163401020
     3.059956427  0.000000000  3.059956427     0.163401020 -0.163401020  0.163401020
     3.059956427  3.059956427  0.000000000     0.163401020  0.163401020 -0.163401020

  length of vectors
     4.327431879  4.327431879  4.327431879     0.283018868  0.283018868  0.283018868


 
 k-points in units of 2pi/SCALE and weight: Gamma centered Monkhorst-Pack           
   0.00000000  0.00000000  0.00000000       0.001
  -0.08333333  0.08333333  0.08333333       0.005
  -0.16666667  0.16666667  0.16666667       0.005
  -0.25000000  0.25000000  0.25000000       0.005
  -0.33333333  0.33333333  0.33333333       0.005
  -0.41666667  0.41666667  0.41666667       0.005
  -0.50000000  0.50000000  0.50000000       0.002
   0.00000000  0.00000000  0.16666667       0.003
  -0.08333333  0.08333333  0.25000000       0.014
  -0.16666667  0.16666667  0.33333333       0.014
  -0.25000000  0.25000000  0.41666667       0.014
  -0.33333333  0.33333333  0.50000000       0.014
  -0.41666667  0.41666667  0.58333333       0.014
   0.50000000 -0.50000000 -0.33333333       0.014
   0.41666667 -0.41666667 -0.25000000       0.014
   0.33333333 -0.33333333 -0.16666667       0.014
   0.25000000 -0.25000000 -0.08333333       0.014
   0.16666667 -0.16666667  0.00000000       0.007
   0.00000000  0.00000000  0.33333333       0.003
  -0.08333333  0.08333333  0.41666667       0.014
  -0.16666667  0.16666667  0.50000000       0.014
  -0.25000000  0.25000000  0.58333333       0.014
  -0.33333333  0.33333333  0.66666667       0.014
   0.58333333 -0.58333333 -0.25000000       0.014
   0.50000000 -0.50000000 -0.16666667       0.014
   0.41666667 -0.41666667 -0.08333333       0.014
   0.33333333 -0.33333333  0.00000000       0.007
   0.00000000  0.00000000  0.50000000       0.003
  -0.08333333  0.08333333  0.58333333       0.014
  -0.16666667  0.16666667  0.66666667       0.014
  -0.25000000  0.25000000  0.75000000       0.014
   0.66666667 -0.66666667 -0.16666667       0.014
   0.58333333 -0.58333333 -0.08333333       0.014
   0.50000000 -0.50000000  0.00000000       0.007
   0.00000000  0.00000000  0.66666667       0.003
  -0.08333333  0.08333333  0.75000000       0.014
  -0.16666667  0.16666667  0.83333333       0.014
   0.75000000 -0.75000000 -0.08333333       0.014
   0.66666667 -0.66666667  0.00000000       0.007
   0.00000000  0.00000000  0.83333333       0.003
  -0.08333333  0.08333333  0.91666667       0.014
   0.83333333 -0.83333333  0.00000000       0.007
   0.00000000  0.00000000  1.00000000       0.002
   0.00000000  0.16666667  0.33333333       0.014
  -0.08333333  0.25000000  0.41666667       0.028
  -0.16666667  0.33333333  0.50000000       0.028
  -0.25000000  0.41666667  0.58333333       0.028
   0.66666667 -0.50000000 -0.33333333       0.014
  -0.00000000  0.16666667  0.50000000       0.014
  -0.08333333  0.25000000  0.58333333       0.028
  -0.16666667  0.33333333  0.66666667       0.028
   0.75000000 -0.58333333 -0.25000000       0.028
   0.66666667 -0.50000000 -0.16666667       0.028
   0.58333333 -0.41666667 -0.08333333       0.028
   0.50000000 -0.33333333  0.00000000       0.014
   0.00000000  0.16666667  0.66666667       0.014
  -0.08333333  0.25000000  0.75000000       0.028
   0.83333333 -0.66666667 -0.16666667       0.028
   0.75000000 -0.58333333 -0.08333333       0.028
   0.66666667 -0.50000000  0.00000000       0.014
   0.00000000  0.16666667  0.83333333       0.014
   0.91666667 -0.75000000 -0.08333333       0.028
   0.83333333 -0.66666667  0.00000000       0.014
   1.00000000 -0.83333333  0.00000000       0.007
   0.00000000  0.33333333  0.66666667       0.014
   0.91666667 -0.58333333 -0.25000000       0.028
   0.83333333 -0.50000000 -0.16666667       0.014
   1.00000000 -0.66666667 -0.16666667       0.014
   0.91666667 -0.58333333 -0.08333333       0.028
   0.83333333 -0.50000000  0.00000000       0.014
   1.00000000 -0.66666667  0.00000000       0.007
   1.00000000 -0.50000000  0.00000000       0.003
 
 k-points in reciprocal lattice and weights: Gamma centered Monkhorst-Pack           
   0.00000000  0.00000000  0.00000000       0.001
   0.08333333  0.00000000  0.00000000       0.005
   0.16666667  0.00000000  0.00000000       0.005
   0.25000000  0.00000000  0.00000000       0.005
   0.33333333  0.00000000  0.00000000       0.005
   0.41666667  0.00000000  0.00000000       0.005
   0.50000000  0.00000000  0.00000000       0.002
   0.08333333  0.08333333  0.00000000       0.003
   0.16666667  0.08333333  0.00000000       0.014
   0.25000000  0.08333333  0.00000000       0.014
   0.33333333  0.08333333  0.00000000       0.014
   0.41666667  0.08333333  0.00000000       0.014
   0.50000000  0.08333333  0.00000000       0.014
  -0.41666667  0.08333333  0.00000000       0.014
  -0.33333333  0.08333333  0.00000000       0.014
  -0.25000000  0.08333333  0.00000000       0.014
  -0.16666667  0.08333333  0.00000000       0.014
  -0.08333333  0.08333333  0.00000000       0.007
   0.16666667  0.16666667  0.00000000       0.003
   0.25000000  0.16666667  0.00000000       0.014
   0.33333333  0.16666667  0.00000000       0.014
   0.41666667  0.16666667  0.00000000       0.014
   0.50000000  0.16666667  0.00000000       0.014
  -0.41666667  0.16666667  0.00000000       0.014
  -0.33333333  0.16666667  0.00000000       0.014
  -0.25000000  0.16666667  0.00000000       0.014
  -0.16666667  0.16666667  0.00000000       0.007
   0.25000000  0.25000000  0.00000000       0.003
   0.33333333  0.25000000  0.00000000       0.014
   0.41666667  0.25000000  0.00000000       0.014
   0.50000000  0.25000000  0.00000000       0.014
  -0.41666667  0.25000000  0.00000000       0.014
  -0.33333333  0.25000000  0.00000000       0.014
  -0.25000000  0.25000000  0.00000000       0.007
   0.33333333  0.33333333  0.00000000       0.003
   0.41666667  0.33333333  0.00000000       0.014
   0.50000000  0.33333333  0.00000000       0.014
  -0.41666667  0.33333333  0.00000000       0.014
  -0.33333333  0.33333333  0.00000000       0.007
   0.41666667  0.41666667  0.00000000       0.003
   0.50000000  0.41666667  0.00000000       0.014
  -0.41666667  0.41666667  0.00000000       0.007
   0.50000000  0.50000000  0.00000000       0.002
   0.25000000  0.16666667  0.08333333       0.014
   0.33333333  0.16666667  0.08333333       0.028
   0.41666667  0.16666667  0.08333333       0.028
   0.50000000  0.16666667  0.08333333       0.028
  -0.41666667  0.16666667  0.08333333       0.014
   0.33333333  0.25000000  0.08333333       0.014
   0.41666667  0.25000000  0.08333333       0.028
   0.50000000  0.25000000  0.08333333       0.028
  -0.41666667  0.25000000  0.08333333       0.028
  -0.33333333  0.25000000  0.08333333       0.028
  -0.25000000  0.25000000  0.08333333       0.028
  -0.16666667  0.25000000  0.08333333       0.014
   0.41666667  0.33333333  0.08333333       0.014
   0.50000000  0.33333333  0.08333333       0.028
  -0.41666667  0.33333333  0.08333333       0.028
  -0.33333333  0.33333333  0.08333333       0.028
  -0.25000000  0.33333333  0.08333333       0.014
   0.50000000  0.41666667  0.08333333       0.014
  -0.41666667  0.41666667  0.08333333       0.028
  -0.33333333  0.41666667  0.08333333       0.014
  -0.41666667  0.50000000  0.08333333       0.007
   0.50000000  0.33333333  0.16666667       0.014
  -0.41666667  0.33333333  0.16666667       0.028
  -0.33333333  0.33333333  0.16666667       0.014
  -0.41666667  0.41666667  0.16666667       0.014
  -0.33333333  0.41666667  0.16666667       0.028
  -0.25000000  0.41666667  0.16666667       0.014
  -0.33333333  0.50000000  0.16666667       0.007
  -0.25000000  0.50000000  0.25000000       0.003
 
 position of ions in fractional coordinates (direct lattice) 
   0.00000000  0.00000000  0.00000000
   0.25000000  0.25000000  0.25000000
 
 position of ions in cartesian coordinates  (Angst):
   0.00000000  0.00000000  0.00000000
   1.52997821  1.52997821  1.52997821
 


--------------------------------------------------------------------------------------------------------


 k-point  1 :   0.0000 0.0000 0.0000  plane waves:    1917
 k-point  2 :   0.0833 0.0000 0.0000  plane waves:    1901
 k-point  3 :   0.1667 0.0000 0.0000  plane waves:    1913
 k-point  4 :   0.2500 0.0000 0.0000  plane waves:    1916
 k-point  5 :   0.3333 0.0000 0.0000  plane waves:    1904
 k-point  6 :   0.4167 0.0000 0.0000  plane waves:    1907
 k-point  7 :   0.5000 0.0000 0.0000  plane waves:    1916
 k-point  8 :   0.0833 0.0833 0.0000  plane waves:    1917
 k-point  9 :   0.1667 0.0833 0.0000  plane waves:    1915
 k-point 10 :   0.2500 0.0833 0.0000  plane waves:    1924
 k-point 11 :   0.3333 0.0833 0.0000  plane waves:    1915
 k-point 12 :   0.4167 0.0833 0.0000  plane waves:    1915
 k-point 13 :   0.5000 0.0833 0.0000  plane waves:    1916
 k-point 14 :  -0.4167 0.0833 0.0000  plane waves:    1914
 k-point 15 :  -0.3333 0.0833 0.0000  plane waves:    1910
 k-point 16 :  -0.2500 0.0833 0.0000  plane waves:    1910
 k-point 17 :  -0.1667 0.0833 0.0000  plane waves:    1922
 k-point 18 :  -0.0833 0.0833 0.0000  plane waves:    1915
 k-point 19 :   0.1667 0.1667 0.0000  plane waves:    1916
 k-point 20 :   0.2500 0.1667 0.0000  plane waves:    1925
 k-point 21 :   0.3333 0.1667 0.0000  plane waves:    1914
 k-point 22 :   0.4167 0.1667 0.0000  plane waves:    1918
 k-point 23 :   0.5000 0.1667 0.0000  plane waves:    1919
 k-point 24 :  -0.4167 0.1667 0.0000  plane waves:    1912
 k-point 25 :  -0.3333 0.1667 0.0000  plane waves:    1918
 k-point 26 :  -0.2500 0.1667 0.0000  plane waves:    1916
 k-point 27 :  -0.1667 0.1667 0.0000  plane waves:    1907
 k-point 28 :   0.2500 0.2500 0.0000  plane waves:    1924
 k-point 29 :   0.3333 0.2500 0.0000  plane waves:    1923
 k-point 30 :   0.4167 0.2500 0.0000  plane waves:    1918
 k-point 31 :   0.5000 0.2500 0.0000  plane waves:    1913
 k-point 32 :  -0.4167 0.2500 0.0000  plane waves:    1908
 k-point 33 :  -0.3333 0.2500 0.0000  plane waves:    1915
 k-point 34 :  -0.2500 0.2500 0.0000  plane waves:    1915
 k-point 35 :   0.3333 0.3333 0.0000  plane waves:    1932
 k-point 36 :   0.4167 0.3333 0.0000  plane waves:    1922
 k-point 37 :   0.5000 0.3333 0.0000  plane waves:    1898
 k-point 38 :  -0.4167 0.3333 0.0000  plane waves:    1903
 k-point 39 :  -0.3333 0.3333 0.0000  plane waves:    1896
 k-point 40 :   0.4167 0.4167 0.0000  plane waves:    1924
 k-point 41 :   0.5000 0.4167 0.0000  plane waves:    1915
 k-point 42 :  -0.4167 0.4167 0.0000  plane waves:    1912
 k-point 43 :   0.5000 0.5000 0.0000  plane waves:    1924
 k-point 44 :   0.2500 0.1667 0.0833  plane waves:    1916
 k-point 45 :   0.3333 0.1667 0.0833  plane waves:    1919
 k-point 46 :   0.4167 0.1667 0.0833  plane waves:    1920
 k-point 47 :   0.5000 0.1667 0.0833  plane waves:    1916
 k-point 48 :  -0.4167 0.1667 0.0833  plane waves:    1906
 k-point 49 :   0.3333 0.2500 0.0833  plane waves:    1917
 k-point 50 :   0.4167 0.2500 0.0833  plane waves:    1918
 k-point 51 :   0.5000 0.2500 0.0833  plane waves:    1914
 k-point 52 :  -0.4167 0.2500 0.0833  plane waves:    1910
 k-point 53 :  -0.3333 0.2500 0.0833  plane waves:    1910
 k-point 54 :  -0.2500 0.2500 0.0833  plane waves:    1909
 k-point 55 :  -0.1667 0.2500 0.0833  plane waves:    1913
 k-point 56 :   0.4167 0.3333 0.0833  plane waves:    1920
 k-point 57 :   0.5000 0.3333 0.0833  plane waves:    1912
 k-point 58 :  -0.4167 0.3333 0.0833  plane waves:    1905
 k-point 59 :  -0.3333 0.3333 0.0833  plane waves:    1903
 k-point 60 :  -0.2500 0.3333 0.0833  plane waves:    1908
 k-point 61 :   0.5000 0.4167 0.0833  plane waves:    1922
 k-point 62 :  -0.4167 0.4167 0.0833  plane waves:    1901
 k-point 63 :  -0.3333 0.4167 0.0833  plane waves:    1905
 k-point 64 :  -0.4167 0.5000 0.0833  plane waves:    1910
 k-point 65 :   0.5000 0.3333 0.1667  plane waves:    1902
 k-point 66 :  -0.4167 0.3333 0.1667  plane waves:    1901
 k-point 67 :  -0.3333 0.3333 0.1667  plane waves:    1902
 k-point 68 :  -0.4167 0.4167 0.1667  plane waves:    1893
 k-point 69 :  -0.3333 0.4167 0.1667  plane waves:    1906
 k-point 70 :  -0.2500 0.4167 0.1667  plane waves:    1909
 k-point 71 :  -0.3333 0.5000 0.1667  plane waves:    1908
 k-point 72 :  -0.2500 0.5000 0.2500  plane waves:    1912

 maximum and minimum number of plane-waves per node :      1932     1893

 maximum number of plane-waves:      1932
 maximum index in each direction: 
   IXMAX=    9   IYMAX=    8   IZMAX=    8
   IXMIN=   -9   IYMIN=   -9   IZMIN=   -8

 WARNING: aliasing errors must be expected set NGX to  38 to avoid them
 WARNING: aliasing errors must be expected set NGY to  36 to avoid them
 WARNING: aliasing errors must be expected set NGZ to  34 to avoid them
 aliasing errors are usually negligible using standard VASP settings
 and one can safely disregard these warnings

 serial   3D FFT for wavefunctions
 parallel 3D FFT for charge:
    minimum data exchange during FFTs selected (reduces bandwidth)


 total amount of memory used by VASP on root node    48125. kBytes
========================================================================

   base      :      30000. kBytes
   nonl-proj :       8964. kBytes
   fftplans  :       1619. kBytes
   grid      :       3048. kBytes
   one-center:          6. kBytes
   wavefun   :       4488. kBytes
 
     INWAV:  cpu time    0.00: real time    0.00
 Broyden mixing: mesh for mixing (old mesh)
   NGX = 17   NGY = 17   NGZ = 17
  (NGX  = 56   NGY  = 56   NGZ  = 56)
  gives a total of   4913 points

 initial charge density was supplied:
 charge density of overlapping atoms calculated
 number of electron       8.0000000 magnetization 
 keeping initial charge density in first step


--------------------------------------------------------------------------------------------------------


 Maximum index for augmentation-charges         3134 (set IRDMAX)


--------------------------------------------------------------------------------------------------------


 First call to EWALD:  gamma=   0.460
 Maximum number of real-space cells 3x 3x 3
 Maximum number of reciprocal cells 3x 3x 3

 FEWALD executed in parallel
    FEWALD:  cpu time    0.00: real time    0.00


----------------------------------------- Iteration    1(   1)  ---------------------------------------


    POTLOK:  cpu time    0.02: real time    0.03
    SETDIJ:  cpu time    0.00: real time    0.00
     EDDAV:  cpu time    0.43: real time    0.45
       DOS:  cpu time    0.00: real time    0.00
    --------------------------------------------
      LOOP:  cpu time    0.46: real time    0.48

 eigenvalue-minimisations  :  1152
 total energy-change (2. order) : 0.7865218E+01  (-0.3155554E+03)
 number of electron       8.0000000 magnetization 
 augmentation part        8.0000000 magnetization 

 Free energy of the ion-electron system (eV)
  ---------------------------------------------------
  alpha Z        PSCENC =         2.34983895
  Ewald energy   TEWEN  =      -202.79699566
  -Hartree energ DENC   =       -17.02683896
  -exchange      EXHF   =         0.00000000
  -V(xc)+E(xc)   XCENC  =       -19.85417759
  PAW double counting   =        65.95520812      -30.76852678
  entropy T*S    EENTRO =        -0.00208140
  eigenvalues    EBANDS =         3.87567202
  atomic energy  EATOM  =       206.13311910
  ---------------------------------------------------
  free energy    TOTEN  =         7.86521778 eV

  energy without entropy =        7.86729919  energy(sigma->0) =        7.86625848


--------------------------------------------------------------------------------------------------------




----------------------------------------- Iteration    1(   2)  ---------------------------------------


     EDDAV:  cpu time    0.62: real time    0.62
       DOS:  cpu time    0.00: real time    0.00
    --------------------------------------------
      LOOP:  cpu time    0.62: real time    0.62

 eigenvalue-minimisations  :  1712
 total energy-change (2. order) :-0.1742104E+02  (-0.1700922E+02)
 number of electron       8.0000000 magnetization 
 augmentation part        8.0000000 magnetization 

 Free energy of the ion-electron system (eV)
  ---------------------------------------------------
  alpha Z        PSCENC =         2.34983895
  Ewald energy   TEWEN  =      -202.79699566
  -Hartree energ DENC   =       -17.02683896
  -exchange      EXHF   =         0.00000000
  -V(xc)+E(xc)   XCENC  =       -19.85417759
  PAW double counting   =        65.95520812      -30.76852678
  entropy T*S    EENTRO =        -0.00012247
  eigenvalues    EBANDS =       -13.54732709
  atomic energy  EATOM  =       206.13311910
  ---------------------------------------------------
  free energy    TOTEN  =        -9.55582238 eV

  energy without entropy =       -9.55569992  energy(sigma->0) =       -9.55576115


--------------------------------------------------------------------------------------------------------




----------------------------------------- Iteration    1(   3)  ---------------------------------------


     EDDAV:  cpu time    0.58: real time    0.58
       DOS:  cpu time    0.00: real time    0.00
    --------------------------------------------
      LOOP:  cpu time    0.58: real time    0.58

 eigenvalue-minimisations  :  1600
 total energy-change (2. order) :-0.3590719E+00  (-0.3586032E+00)
 number of electron       8.0000000 magnetization 
 augmentation part        8.0000000 magnetization 

 Free energy of the ion-electron system (eV)
  ---------------------------------------------------
  alpha Z        PSCENC =         2.34983895
  Ewald energy   TEWEN  =      -202.79699566
  -Hartree energ DENC   =       -17.02683896
  -exchange      EXHF   =         0.00000000
  -V(xc)+E(xc)   XCENC  =       -19.85417759
  PAW double counting   =        65.95520812      -30.76852678
  entropy T*S    EENTRO =        -0.00008696
  eigenvalues    EBANDS =       -13.90643445
  atomic energy  EATOM  =       206.13311910
  ---------------------------------------------------
  free energy    TOTEN  =        -9.91489424 eV

  energy without entropy =       -9.91480728  energy(sigma->0) =       -9.91485076


--------------------------------------------------------------------------------------------------------




----------------------------------------- Iteration    1(   4)  ---------------------------------------


     EDDAV:  cpu time    0.60: real time    0.62
       DOS:  cpu time    0.00: real time    0.00
    --------------------------------------------
      LOOP:  cpu time    0.60: real time    0.63

 eigenvalue-minimisations  :  1728
 total energy-change (2. order) :-0.1560602E-02  (-0.1560599E-02)
 number of electron       8.0000000 magnetization 
 augmentation part        8.0000000 magnetization 

 Free energy of the ion-electron system (eV)
  ---------------------------------------------------
  alpha Z        PSCENC =         2.34983895
  Ewald energy   TEWEN  =      -202.79699566
  -Hartree energ DENC   =       -17.02683896
  -exchange      EXHF   =         0.00000000
  -V(xc)+E(xc)   XCENC  =       -19.85417759
  PAW double counting   =        65.95520812      -30.76852678
  entropy T*S    EENTRO =        -0.00008662
  eigenvalues    EBANDS =       -13.90799540
  atomic energy  EATOM  =       206.13311910
  ---------------------------------------------------
  free energy    TOTEN  =        -9.91645485 eV

  energy without entropy =       -9.91636823  energy(sigma->0) =       -9.91641154


--------------------------------------------------------------------------------------------------------




----------------------------------------- Iteration    1(   5)  ---------------------------------------


     EDDAV:  cpu time    0.57: real time    0.59
       DOS:  cpu time    0.00: real time    0.00
    CHARGE:  cpu time    0.03: real time    0.03
    MIXING:  cpu time    0.00: real time    0.00
    --------------------------------------------
      LOOP:  cpu time    0.60: real time    0.62

 eigenvalue-minimisations  :  1616
 total energy-change (2. order) :-0.9131222E-05  (-0.9131099E-05)
 number of electron       8.0000001 magnetization 
 augmentation part       -0.4713016 magnetization 

 Broyden mixing:
  rms(total) = 0.21958E+00    rms(broyden)= 0.21958E+00
  rms(prec ) = 0.57877E+00
  weight for this iteration     100.00

 Free energy of the ion-electron system (eV)
  ---------------------------------------------------
  alpha Z        PSCENC =         2.34983895
  Ewald energy   TEWEN  =      -202.79699566
  -Hartree energ DENC   =       -17.02683896
  -exchange      EXHF   =         0.00000000
  -V(xc)+E(xc)   XCENC  =       -19.85417759
  PAW double counting   =        65.95520812      -30.76852678
  entropy T*S    EENTRO =        -0.00008662
  eigenvalues    EBANDS =       -13.90800453
  atomic energy  EATOM  =       206.13311910
  ---------------------------------------------------
  free energy    TOTEN  =        -9.91646398 eV

  energy without entropy =       -9.91637736  energy(sigma->0) =       -9.91642067


--------------------------------------------------------------------------------------------------------




----------------------------------------- Iteration    1(   6)  ---------------------------------------


    POTLOK:  cpu time    0.02: real time    0.03
    SETDIJ:  cpu time    0.00: real time    0.00
     EDDAV:  cpu time    0.50: real time    0.51
       DOS:  cpu time    0.00: real time    0.00
    CHARGE:  cpu time    0.03: real time    0.03
    MIXING:  cpu time    0.00: real time    0.00
    --------------------------------------------
      LOOP:  cpu time    0.55: real time    0.57

 eigenvalue-minimisations  :  1392
 total energy-change (2. order) : 0.2579011E-01  (-0.1125617E-02)
 number of electron       8.0000001 magnetization 
 augmentation part       -0.4700240 magnetization 

 Broyden mixing:
  rms(total) = 0.13638E+00    rms(broyden)= 0.13638E+00
  rms(prec ) = 0.36188E+00
  weight for this iteration     100.00

 eigenvalues of (default mixing * dielectric matrix)
  average eigenvalue GAMMA=   2.6252
  2.6252

 Free energy of the ion-electron system (eV)
  ---------------------------------------------------
  alpha Z        PSCENC =         2.34983895
  Ewald energy   TEWEN  =      -202.79699566
  -Hartree energ DENC   =       -17.86530910
  -exchange      EXHF   =         0.00000000
  -V(xc)+E(xc)   XCENC  =       -19.72828451
  PAW double counting   =        66.48060601      -31.30298155
  entropy T*S    EENTRO =        -0.00008590
  eigenvalues    EBANDS =       -13.16058121
  atomic energy  EATOM  =       206.13311910
  ---------------------------------------------------
  free energy    TOTEN  =        -9.89067387 eV

  energy without entropy =       -9.89058797  energy(sigma->0) =       -9.89063092


--------------------------------------------------------------------------------------------------------




----------------------------------------- Iteration    1(   7)  ---------------------------------------


    POTLOK:  cpu time    0.02: real time    0.03
    SETDIJ:  cpu time    0.00: real time    0.00
     EDDAV:  cpu time    0.49: real time    0.51
       DOS:  cpu time    0.00: real time    0.00
    CHARGE:  cpu time    0.03: real time    0.03
    MIXING:  cpu time    0.00: real time    0.00
    --------------------------------------------
      LOOP:  cpu time    0.54: real time    0.57

 eigenvalue-minimisations  :  1360
 total energy-change (2. order) : 0.1794227E-01  (-0.3425907E-02)
 number of electron       8.0000001 magnetization 
 augmentation part       -0.4690686 magnetization 

 Broyden mixing:
  rms(total) = 0.90065E-02    rms(broyden)= 0.90065E-02
  rms(prec ) = 0.21958E-01
  weight for this iteration     100.00

 eigenvalues of (default mixing * dielectric matrix)
  average eigenvalue GAMMA=   2.5845
  2.5845  2.5845

 Free energy of the ion-electron system (eV)
  ---------------------------------------------------
  alpha Z        PSCENC =         2.34983895
  Ewald energy   TEWEN  =      -202.79699566
  -Hartree energ DENC   =       -19.49543690
  -exchange      EXHF   =         0.00000000
  -V(xc)+E(xc)   XCENC  =       -19.47798491
  PAW double counting   =        66.96306082      -31.79072569
  entropy T*S    EENTRO =        -0.00008438
  eigenvalues    EBANDS =       -11.75752294
  atomic energy  EATOM  =       206.13311910
  ---------------------------------------------------
  free energy    TOTEN  =        -9.87273160 eV

  energy without entropy =       -9.87264722  energy(sigma->0) =       -9.87268941


--------------------------------------------------------------------------------------------------------




----------------------------------------- Iteration    1(   8)  ---------------------------------------


    POTLOK:  cpu time    0.02: real time    0.03
    SETDIJ:  cpu time    0.00: real time    0.00
     EDDAV:  cpu time    0.46: real time    0.47
       DOS:  cpu time    0.00: real time    0.00
    CHARGE:  cpu time    0.03: real time    0.03
    MIXING:  cpu time    0.00: real time    0.00
    --------------------------------------------
      LOOP:  cpu time    0.51: real time    0.53

 eigenvalue-minimisations  :  1248
 total energy-change (2. order) :-0.1374081E-02  (-0.1884379E-03)
 number of electron       8.0000001 magnetization 
 augmentation part       -0.4693039 magnetization 

 Broyden mixing:
  rms(total) = 0.26571E-02    rms(broyden)= 0.26571E-02
  rms(prec ) = 0.91633E-02
  weight for this iteration     100.00

 eigenvalues of (default mixing * dielectric matrix)
  average eigenvalue GAMMA=   2.2271
  1.0743  2.5403  3.0669

 Free energy of the ion-electron system (eV)
  ---------------------------------------------------
  alpha Z        PSCENC =         2.34983895
  Ewald energy   TEWEN  =      -202.79699566
  -Hartree energ DENC   =       -19.48753274
  -exchange      EXHF   =         0.00000000
  -V(xc)+E(xc)   XCENC  =       -19.48243872
  PAW double counting   =        66.52436464      -31.34200443
  entropy T*S    EENTRO =        -0.00008429
  eigenvalues    EBANDS =       -11.77237253
  atomic energy  EATOM  =       206.13311910
  ---------------------------------------------------
  free energy    TOTEN  =        -9.87410568 eV

  energy without entropy =       -9.87402139  energy(sigma->0) =       -9.87406354


--------------------------------------------------------------------------------------------------------




----------------------------------------- Iteration    1(   9)  ---------------------------------------


    POTLOK:  cpu time    0.02: real time    0.03
    SETDIJ:  cpu time    0.00: real time    0.00
     EDDAV:  cpu time    0.60: real time    0.61
       DOS:  cpu time    0.00: real time    0.00
    CHARGE:  cpu time    0.02: real time    0.03
    MIXING:  cpu time    0.00: real time    0.00
    --------------------------------------------
      LOOP:  cpu time    0.65: real time    0.67

 eigenvalue-minimisations  :  1696
 total energy-change (2. order) :-0.1762297E-03  (-0.2620852E-04)
 number of electron       8.0000001 magnetization 
 augmentation part       -0.4693212 magnetization 

 Broyden mixing:
  rms(total) = 0.97131E-03    rms(broyden)= 0.97130E-03
  rms(prec ) = 0.25319E-02
  weight for this iteration     100.00

 eigenvalues of (default mixing * dielectric matrix)
  average eigenvalue GAMMA=   2.3487
  0.9752  3.3873  2.5161  2.5161

 Free energy of the ion-electron system (eV)
  ---------------------------------------------------
  alpha Z        PSCENC =         2.34983895
  Ewald energy   TEWEN  =      -202.79699566
  -Hartree energ DENC   =       -19.54802130
  -exchange      EXHF   =         0.00000000
  -V(xc)+E(xc)   XCENC  =       -19.47471372
  PAW double counting   =        66.43645115      -31.25222535
  entropy T*S    EENTRO =        -0.00008420
  eigenvalues    EBANDS =       -11.72165088
  atomic energy  EATOM  =       206.13311910
  ---------------------------------------------------
  free energy    TOTEN  =        -9.87428191 eV

  energy without entropy =       -9.87419772  energy(sigma->0) =       -9.87423982


--------------------------------------------------------------------------------------------------------




----------------------------------------- Iteration    1(  10)  ---------------------------------------


    POTLOK:  cpu time    0.02: real time    0.03
    SETDIJ:  cpu time    0.00: real time    0.00
     EDDAV:  cpu time    0.44: real time    0.45
       DOS:  cpu time    0.00: real time    0.00
    CHARGE:  cpu time    0.03: real time    0.03
    MIXING:  cpu time    0.00: real time    0.00
    --------------------------------------------
      LOOP:  cpu time    0.49: real time    0.51

 eigenvalue-minimisations  :  1184
 total energy-change (2. order) :-0.9915692E-05  (-0.2059420E-05)
 number of electron       8.0000001 magnetization 
 augmentation part       -0.4692178 magnetization 

 Broyden mixing:
  rms(total) = 0.10955E-03    rms(broyden)= 0.10955E-03
  rms(prec ) = 0.34604E-03
  weight for this iteration     100.00

 eigenvalues of (default mixing * dielectric matrix)
  average eigenvalue GAMMA=   2.1622
  3.4308  2.7657  2.2561  0.9624  1.3961

 Free energy of the ion-electron system (eV)
  ---------------------------------------------------
  alpha Z        PSCENC =         2.34983895
  Ewald energy   TEWEN  =      -202.79699566
  -Hartree energ DENC   =       -19.56044643
  -exchange      EXHF   =         0.00000000
  -V(xc)+E(xc)   XCENC  =       -19.47395685
  PAW double counting   =        66.48987452      -31.30732829
  entropy T*S    EENTRO =        -0.00008417
  eigenvalues    EBANDS =       -11.70831300
  atomic energy  EATOM  =       206.13311910
  ---------------------------------------------------
  free energy    TOTEN  =        -9.87429183 eV

  energy without entropy =       -9.87420766  energy(sigma->0) =       -9.87424974


--------------------------------------------------------------------------------------------------------




----------------------------------------- Iteration    1(  11)  ---------------------------------------


    POTLOK:  cpu time    0.02: real time    0.03
    SETDIJ:  cpu time    0.00: real time    0.00
     EDDAV:  cpu time    0.64: real time    0.66
       DOS:  cpu time    0.00: real time    0.00
    CHARGE:  cpu time    0.02: real time    0.03
    MIXING:  cpu time    0.00: real time    0.00
    --------------------------------------------
      LOOP:  cpu time    0.70: real time    0.72

 eigenvalue-minimisations  :  1848
 total energy-change (2. order) : 0.4495090E-06  (-0.2805268E-07)
 number of electron       8.0000001 magnetization 
 augmentation part       -0.4692273 magnetization 

 Broyden mixing:
  rms(total) = 0.52633E-04    rms(broyden)= 0.52633E-04
  rms(prec ) = 0.97064E-04
  weight for this iteration     100.00

 eigenvalues of (default mixing * dielectric matrix)
  average eigenvalue GAMMA=   2.1762
  1.0036  0.9906  3.4865  2.8327  2.5599  2.1838

 Free energy of the ion-electron system (eV)
  ---------------------------------------------------
  alpha Z        PSCENC =         2.34983895
  Ewald energy   TEWEN  =      -202.79699566
  -Hartree energ DENC   =       -19.55804625
  -exchange      EXHF   =         0.00000000
  -V(xc)+E(xc)   XCENC  =       -19.47421729
  PAW double counting   =        66.48201036      -31.29919289
  entropy T*S    EENTRO =        -0.00008417
  eigenvalues    EBANDS =       -11.71072353
  atomic energy  EATOM  =       206.13311910
  ---------------------------------------------------
  free energy    TOTEN  =        -9.87429138 eV

  energy without entropy =       -9.87420721  energy(sigma->0) =       -9.87424929


--------------------------------------------------------------------------------------------------------




----------------------------------------- Iteration    1(  12)  ---------------------------------------


    POTLOK:  cpu time    0.02: real time    0.03
    SETDIJ:  cpu time    0.00: real time    0.00
     EDDAV:  cpu time    0.45: real time    0.45
       DOS:  cpu time    0.00: real time    0.00
    CHARGE:  cpu time    0.02: real time    0.03
    MIXING:  cpu time    0.00: real time    0.00
    --------------------------------------------
      LOOP:  cpu time    0.50: real time    0.52

 eigenvalue-minimisations  :  1184
 total energy-change (2. order) : 0.5111204E-07  (-0.8900548E-08)
 number of electron       8.0000001 magnetization 
 augmentation part       -0.4692285 magnetization 

 Broyden mixing:
  rms(total) = 0.52380E-05    rms(broyden)= 0.52380E-05
  rms(prec ) = 0.14017E-04
  weight for this iteration     100.00

 eigenvalues of (default mixing * dielectric matrix)
  average eigenvalue GAMMA=   2.0066
  3.4808  2.8307  2.4985  2.3145  0.9653  0.9783  0.9783

 Free energy of the ion-electron system (eV)
  ---------------------------------------------------
  alpha Z        PSCENC =         2.34983895
  Ewald energy   TEWEN  =      -202.79699566
  -Hartree energ DENC   =       -19.55816875
  -exchange      EXHF   =         0.00000000
  -V(xc)+E(xc)   XCENC  =       -19.47414757
  PAW double counting   =        66.48194199      -31.29902877
  entropy T*S    EENTRO =        -0.00008417
  eigenvalues    EBANDS =       -11.71076645
  atomic energy  EATOM  =       206.13311910
  ---------------------------------------------------
  free energy    TOTEN  =        -9.87429133 eV

  energy without entropy =       -9.87420716  energy(sigma->0) =       -9.87424924


--------------------------------------------------------------------------------------------------------




----------------------------------------- Iteration    1(  13)  ---------------------------------------


    POTLOK:  cpu time    0.02: real time    0.03
    SETDIJ:  cpu time    0.00: real time    0.00
     EDDAV:  cpu time    0.66: real time    0.67
       DOS:  cpu time    0.00: real time    0.00
    CHARGE:  cpu time    0.03: real time    0.03
    MIXING:  cpu time    0.00: real time    0.00
    --------------------------------------------
      LOOP:  cpu time    0.71: real time    0.74

 eigenvalue-minimisations  :  1904
 total energy-change (2. order) : 0.1895205E-07  (-0.9509562E-10)
 number of electron       8.0000001 magnetization 
 augmentation part       -0.4692293 magnetization 

 Broyden mixing:
  rms(total) = 0.23279E-05    rms(broyden)= 0.23279E-05
  rms(prec ) = 0.33124E-05
  weight for this iteration     100.00

 eigenvalues of (default mixing * dielectric matrix)
  average eigenvalue GAMMA=   2.0985
  3.4854  2.8855  2.5291  2.5291  2.3475  0.9724  0.9887  1.0500

 Free energy of the ion-electron system (eV)
  ---------------------------------------------------
  alpha Z        PSCENC =         2.34983895
  Ewald energy   TEWEN  =      -202.79699566
  -Hartree energ DENC   =       -19.55809130
  -exchange      EXHF   =         0.00000000
  -V(xc)+E(xc)   XCENC  =       -19.47415232
  PAW double counting   =        66.48151912      -31.29859255
  entropy T*S    EENTRO =        -0.00008417
  eigenvalues    EBANDS =       -11.71085248
  atomic energy  EATOM  =       206.13311910
  ---------------------------------------------------
  free energy    TOTEN  =        -9.87429131 eV

  energy without entropy =       -9.87420714  energy(sigma->0) =       -9.87424922


--------------------------------------------------------------------------------------------------------




----------------------------------------- Iteration    1(  14)  ---------------------------------------


    POTLOK:  cpu time    0.02: real time    0.03
    SETDIJ:  cpu time    0.00: real time    0.00
     EDDAV:  cpu time    0.44: real time    0.46
       DOS:  cpu time    0.00: real time    0.00
    CHARGE:  cpu time    0.03: real time    0.03
    MIXING:  cpu time    0.00: real time    0.00
    --------------------------------------------
      LOOP:  cpu time    0.50: real time    0.52

 eigenvalue-minimisations  :  1184
 total energy-change (2. order) :-0.6242942E-08  (-0.1381726E-10)
 number of electron       8.0000001 magnetization 
 augmentation part       -0.4692292 magnetization 

 Broyden mixing:
  rms(total) = 0.54630E-06    rms(broyden)= 0.54629E-06
  rms(prec ) = 0.16007E-05
  weight for this iteration     100.00

 eigenvalues of (default mixing * dielectric matrix)
  average eigenvalue GAMMA=   2.0145
  3.4991  2.9182  2.7333  2.5176  2.2231  1.2154  0.9861  0.9684  1.0690

 Free energy of the ion-electron system (eV)
  ---------------------------------------------------
  alpha Z        PSCENC =         2.34983895
  Ewald energy   TEWEN  =      -202.79699566
  -Hartree energ DENC   =       -19.55810531
  -exchange      EXHF   =         0.00000000
  -V(xc)+E(xc)   XCENC  =       -19.47415223
  PAW double counting   =        66.48147871      -31.29855831
  entropy T*S    EENTRO =        -0.00008417
  eigenvalues    EBANDS =       -11.71083240
  atomic energy  EATOM  =       206.13311910
  ---------------------------------------------------
  free energy    TOTEN  =        -9.87429132 eV

  energy without entropy =       -9.87420714  energy(sigma->0) =       -9.87424923


--------------------------------------------------------------------------------------------------------




----------------------------------------- Iteration    1(  15)  ---------------------------------------


    POTLOK:  cpu time    0.02: real time    0.03
    SETDIJ:  cpu time    0.00: real time    0.00
     EDDAV:  cpu time    0.31: real time    0.32
       DOS:  cpu time    0.00: real time    0.00
    CHARGE:  cpu time    0.02: real time    0.03
    MIXING:  cpu time    0.00: real time    0.00
    --------------------------------------------
      LOOP:  cpu time    0.36: real time    0.38

 eigenvalue-minimisations  :   680
 total energy-change (2. order) : 0.2251426E-08  (-0.6500882E-12)
 number of electron       8.0000001 magnetization 
 augmentation part       -0.4692292 magnetization 

 Broyden mixing:
  rms(total) = 0.84468E-07    rms(broyden)= 0.84462E-07
  rms(prec ) = 0.14340E-06
  weight for this iteration     100.00

 eigenvalues of (default mixing * dielectric matrix)
  average eigenvalue GAMMA=   2.0433
  3.4949  2.9074  2.7900  2.4483  2.4483  2.2962  0.9621  0.9963  1.0448  1.0448

 Free energy of the ion-electron system (eV)
  ---------------------------------------------------
  alpha Z        PSCENC =         2.34983895
  Ewald energy   TEWEN  =      -202.79699566
  -Hartree energ DENC   =       -19.55809622
  -exchange      EXHF   =         0.00000000
  -V(xc)+E(xc)   XCENC  =       -19.47415311
  PAW double counting   =        66.48143381      -31.29851175
  entropy T*S    EENTRO =        -0.00008417
  eigenvalues    EBANDS =       -11.71084226
  atomic energy  EATOM  =       206.13311910
  ---------------------------------------------------
  free energy    TOTEN  =        -9.87429131 eV

  energy without entropy =       -9.87420714  energy(sigma->0) =       -9.87424923


--------------------------------------------------------------------------------------------------------




----------------------------------------- Iteration    1(  16)  ---------------------------------------


    POTLOK:  cpu time    0.02: real time    0.03
    SETDIJ:  cpu time    0.00: real time    0.00
     EDDAV:  cpu time    0.28: real time    0.29
       DOS:  cpu time    0.00: real time    0.00
    CHARGE:  cpu time    0.02: real time    0.03
    MIXING:  cpu time    0.00: real time    0.00
    --------------------------------------------
      LOOP:  cpu time    0.33: real time    0.35

 eigenvalue-minimisations  :   576
 total energy-change (2. order) : 0.4233414E-09  (-0.9316493E-13)
 number of electron       8.0000001 magnetization 
 augmentation part       -0.4692293 magnetization 

 Broyden mixing:
  rms(total) = 0.55701E-07    rms(broyden)= 0.55692E-07
  rms(prec ) = 0.13888E-06
  weight for this iteration     100.00

 eigenvalues of (default mixing * dielectric matrix)
  average eigenvalue GAMMA=   1.9755
  3.4929  3.0691  2.7843  2.6529  2.5131  2.2436  1.0298  1.0298  0.9841  0.9656
  0.9656

 Free energy of the ion-electron system (eV)
  ---------------------------------------------------
  alpha Z        PSCENC =         2.34983895
  Ewald energy   TEWEN  =      -202.79699566
  -Hartree energ DENC   =       -19.55809601
  -exchange      EXHF   =         0.00000000
  -V(xc)+E(xc)   XCENC  =       -19.47415306
  PAW double counting   =        66.48143934      -31.29851721
  entropy T*S    EENTRO =        -0.00008417
  eigenvalues    EBANDS =       -11.71084259
  atomic energy  EATOM  =       206.13311910
  ---------------------------------------------------
  free energy    TOTEN  =        -9.87429131 eV

  energy without entropy =       -9.87420714  energy(sigma->0) =       -9.87424923


--------------------------------------------------------------------------------------------------------




----------------------------------------- Iteration    1(  17)  ---------------------------------------


    POTLOK:  cpu time    0.02: real time    0.03
    SETDIJ:  cpu time    0.00: real time    0.00
     EDDAV:  cpu time    0.28: real time    0.29
       DOS:  cpu time    0.00: real time    0.00
    CHARGE:  cpu time    0.02: real time    0.03
    MIXING:  cpu time    0.00: real time    0.00
    --------------------------------------------
      LOOP:  cpu time    0.33: real time    0.35

 eigenvalue-minimisations  :   576
 total energy-change (2. order) :-0.4235972E-09  (-0.8814474E-13)
 number of electron       8.0000001 magnetization 
 augmentation part       -0.4692293 magnetization 

 Broyden mixing:
  rms(total) = 0.94842E-08    rms(broyden)= 0.94329E-08
  rms(prec ) = 0.26018E-07
  weight for this iteration     100.00

 eigenvalues of (default mixing * dielectric matrix)
  average eigenvalue GAMMA=   1.9436
  3.4943  2.9313  2.8280  2.6262  2.5264  2.2408  1.5922  0.9558  0.9765  1.0047
  1.0047  1.1425

 Free energy of the ion-electron system (eV)
  ---------------------------------------------------
  alpha Z        PSCENC =         2.34983895
  Ewald energy   TEWEN  =      -202.79699566
  -Hartree energ DENC   =       -19.55809612
  -exchange      EXHF   =         0.00000000
  -V(xc)+E(xc)   XCENC  =       -19.47415311
  PAW double counting   =        66.48144414      -31.29852217
  entropy T*S    EENTRO =        -0.00008417
  eigenvalues    EBANDS =       -11.71084227
  atomic energy  EATOM  =       206.13311910
  ---------------------------------------------------
  free energy    TOTEN  =        -9.87429131 eV

  energy without entropy =       -9.87420714  energy(sigma->0) =       -9.87424923


--------------------------------------------------------------------------------------------------------




----------------------------------------- Iteration    1(  18)  ---------------------------------------


    POTLOK:  cpu time    0.02: real time    0.03
    SETDIJ:  cpu time    0.00: real time    0.00
     EDDAV:  cpu time    0.28: real time    0.28
       DOS:  cpu time    0.00: real time    0.00
    --------------------------------------------
      LOOP:  cpu time    0.30: real time    0.32

 eigenvalue-minimisations  :   576
 total energy-change (2. order) : 0.3089440E-10  ( 0.1278057E-13)
 number of electron       8.0000001 magnetization 
 augmentation part       -0.4692293 magnetization 

 Free energy of the ion-electron system (eV)
  ---------------------------------------------------
  alpha Z        PSCENC =         2.34983895
  Ewald energy   TEWEN  =      -202.79699566
  -Hartree energ DENC   =       -19.55809628
  -exchange      EXHF   =         0.00000000
  -V(xc)+E(xc)   XCENC  =       -19.47415310
  PAW double counting   =        66.48144368      -31.29852171
  entropy T*S    EENTRO =        -0.00008417
  eigenvalues    EBANDS =       -11.71084212
  atomic energy  EATOM  =       206.13311910
  ---------------------------------------------------
  free energy    TOTEN  =        -9.87429131 eV

  energy without entropy =       -9.87420714  energy(sigma->0) =       -9.87424923


--------------------------------------------------------------------------------------------------------




 average (electrostatic) potential at core
  the test charge radii are     0.9892
  (the norm of the test charge is              1.0000)
       1 -86.7847       2 -86.7847
 
 
 
 E-fermi :   2.7709     XC(G=0):  -8.0632     alpha+bet : -8.3711


 k-point     1 :       0.0000    0.0000    0.0000
  band No.  band energies     occupation 
      1      -7.1148      2.00000
      2       2.5331      1.99985
      3       2.7458      1.46339
      4       2.7458      1.46339
      5       2.7458      1.46339
      6       5.0908      0.00000
      7       5.0908      0.00000
      8       5.0908      0.00000

 k-point     2 :       0.0833    0.0000    0.0000
  band No.  band energies     occupation 
      1      -7.0492      2.00000
      2       1.4812      2.00000
      3       2.6493      1.98468
      4       2.6493      1.98468
      5       3.4782      0.00000
      6       5.2345      0.00000
      7       5.2345      0.00000
      8       5.3112      0.00000

 k-point     3 :       0.1667    0.0000    0.0000
  band No.  band energies     occupation 
      1      -6.8554      2.00000
      2       0.2847      2.00000
      3       2.4314      2.00000
      4       2.4314      2.00000
      5       3.6546      0.00000
      6       5.5582      0.00000
      7       5.5582      0.00000
      8       6.1230      0.00000

 k-point     4 :       0.2500    0.0000    0.0000
  band No.  band energies     occupation 
      1      -6.5450      2.00000
      2      -0.8554      2.00000
      3       2.1991      2.00000
      4       2.1991      2.00000
      5       3.4965      0.00000
      6       5.8598      0.00000
      7       5.8598      0.00000
      8       7.2642      0.00000

 k-point     5 :       0.3333    0.0000    0.0000
  band No.  band energies     occupation 
      1      -6.1485      2.00000
      2      -1.8659      2.00000
      3       2.0111      2.00000
      4       2.0111      2.00000
      5       3.3034      0.00000
      6       6.0099      0.00000
      7       6.0099      0.00000
      8       8.4705      0.00000

 k-point     6 :       0.4167    0.0000    0.0000
  band No.  band energies     occupation 
      1      -5.7490      2.00000
      2      -2.6413      2.00000
      3       1.8922      2.00000
      4       1.8922      2.00000
      5       3.1685      0.00000
      6       6.0381      0.00000
      7       6.0381      0.00000
      8       9.4482      0.00000

 k-point     7 :       0.5000    0.0000    0.0000
  band No.  band energies     occupation 
      1      -5.5547      2.00000
      2      -2.9620      2.00000
      3       1.8518      2.00000
      4       1.8518      2.00000
      5       3.1212      0.00000
      6       6.0348      0.00000
      7       6.0348      0.00000
      8       9.7013      0.00000

 k-point     8 :       0.0833    0.0833    0.0000
  band No.  band energies     occupation 
      1      -7.0271      2.00000
      2       1.3914      2.00000
      3       2.4727      1.99999
      4       2.4727      1.99999
      5       3.8613      0.00000
      6       4.8988      0.00000
      7       5.4729      0.00000
      8       5.4729      0.00000

 k-point     9 :       0.1667    0.0833    0.0000
  band No.  band energies     occupation 
      1      -6.8754      2.00000
      2       0.4985      2.00000
      3       2.2200      2.00000
      4       2.2626      2.00000
      5       4.2111      0.00000
      6       4.9457      0.00000
      7       5.8599      0.00000
      8       6.0489      0.00000

 k-point    10 :       0.2500    0.0833    0.0000
  band No.  band energies     occupation 
      1      -6.6020      2.00000
      2      -0.5694      2.00000
      3       1.9861      2.00000
      4       1.9910      2.00000
      5       4.1188      0.00000
      6       5.3330      0.00000
      7       6.2060      0.00000
      8       6.8941      0.00000

 k-point    11 :       0.3333    0.0833    0.0000
  band No.  band energies     occupation 
      1      -6.2289      2.00000
      2      -1.5870      2.00000
      3       1.7121      2.00000
      4       1.8185      2.00000
      5       3.9261      0.00000
      6       5.6884      0.00000
      7       6.3686      0.00000
      8       7.7379      0.00000

 k-point    12 :       0.4167    0.0833    0.0000
  band No.  band energies     occupation 
      1      -5.8142      2.00000
      2      -2.4369      2.00000
      3       1.4871      2.00000
      4       1.7357      2.00000
      5       3.7667      0.00000
      6       5.8669      0.00000
      7       6.3557      0.00000
      8       8.6320      0.00000

 k-point    13 :       0.5000    0.0833    0.0000
  band No.  band energies     occupation 
      1      -5.5187      2.00000
      2      -2.9338      2.00000
      3       1.3436      2.00000
      4       1.7425      2.00000
      5       3.6805      0.00000
      6       5.9590      0.00000
      7       6.2704      0.00000
      8       9.4399      0.00000

 k-point    14 :      -0.4167    0.0833    0.0000
  band No.  band energies     occupation 
      1      -5.5882      2.00000
      2      -2.8232      2.00000
      3       1.2947      2.00000
      4       1.8353      2.00000
      5       3.6806      0.00000
      6       6.0493      0.00000
      7       6.1777      0.00000
      8       9.4159      0.00000

 k-point    15 :      -0.3333    0.0833    0.0000
  band No.  band energies     occupation 
      1      -5.9518      2.00000
      2      -2.1782      2.00000
      3       1.3481      2.00000
      4       2.0038      2.00000
      5       3.7644      0.00000
      6       6.0660      0.00000
      7       6.1247      0.00000
      8       8.5310      0.00000

 k-point    16 :      -0.2500    0.0833    0.0000
  band No.  band energies     occupation 
      1      -6.3633      2.00000
      2      -1.2602      2.00000
      3       1.5094      2.00000
      4       2.2279      2.00000
      5       3.9091      0.00000
      6       5.8659      0.00000
      7       6.0609      0.00000
      8       7.5333      0.00000

 k-point    17 :      -0.1667    0.0833    0.0000
  band No.  band energies     occupation 
      1      -6.7066      2.00000
      2      -0.2247      2.00000
      3       1.7854      2.00000
      4       2.4675      1.99999
      5       4.0357      0.00000
      6       5.5570      0.00000
      7       5.7088      0.00000
      8       6.6738      0.00000

 k-point    18 :      -0.0833    0.0833    0.0000
  band No.  band energies     occupation 
      1      -6.9406      2.00000
      2       0.7834      2.00000
      3       2.1926      2.00000
      4       2.6433      1.98796
      5       3.9026      0.00000
      6       5.2799      0.00000
      7       5.3222      0.00000
      8       5.9148      0.00000

 k-point    19 :       0.1667    0.1667    0.0000
  band No.  band energies     occupation 
      1      -6.7657      2.00000
      2       0.1768      2.00000
      3       1.9468      2.00000
      4       1.9468      2.00000
      5       4.4881      0.00000
      6       4.8664      0.00000
      7       6.3216      0.00000
      8       6.3216      0.00000

 k-point    20 :       0.2500    0.1667    0.0000
  band No.  band energies     occupation 
      1      -6.5314      2.00000
      2      -0.5783      2.00000
      3       1.6403      2.00000
      4       1.7028      2.00000
      5       4.4765      0.00000
      6       5.0661      0.00000
      7       6.7622      0.00000
      8       6.8342      0.00000

 k-point    21 :       0.3333    0.1667    0.0000
  band No.  band energies     occupation 
      1      -6.1877      2.00000
      2      -1.4606      2.00000
      3       1.2643      2.00000
      4       1.5337      2.00000
      5       4.4996      0.00000
      6       5.3952      0.00000
      7       7.0110      0.00000
      8       7.0709      0.00000

 k-point    22 :       0.4167    0.1667    0.0000
  band No.  band energies     occupation 
      1      -5.7748      2.00000
      2      -2.2904      2.00000
      3       0.9192      2.00000
      4       1.4589      2.00000
      5       4.3944      0.00000
      6       5.8426      0.00000
      7       7.0245      0.00000
      8       7.4174      0.00000

 k-point    23 :       0.5000    0.1667    0.0000
  band No.  band energies     occupation 
      1      -5.4082      2.00000
      2      -2.8924      2.00000
      3       0.6663      2.00000
      4       1.4834      2.00000
      5       4.3153      0.00000
      6       6.0636      0.00000
      7       6.9022      0.00000
      8       8.2317      0.00000

 k-point    24 :      -0.4167    0.1667    0.0000
  band No.  band energies     occupation 
      1      -5.3442      2.00000
      2      -2.9867      2.00000
      3       0.5331      2.00000
      4       1.6028      2.00000
      5       4.3084      0.00000
      6       6.1863      0.00000
      7       6.7336      0.00000
      8       9.0814      0.00000

 k-point    25 :      -0.3333    0.1667    0.0000
  band No.  band energies     occupation 
      1      -5.6502      2.00000
      2      -2.5071      2.00000
      3       0.5407      2.00000
      4       1.8035      2.00000
      5       4.3698      0.00000
      6       6.3074      0.00000
      7       6.5255      0.00000
      8       8.3453      0.00000

 k-point    26 :      -0.2500    0.1667    0.0000
  band No.  band energies     occupation 
      1      -6.0666      2.00000
      2      -1.7437      2.00000
      3       0.7197      2.00000
      4       2.0573      2.00000
[...]
      8       8.7999      0.00000

 k-point    37 :       0.5000    0.3333    0.0000
  band No.  band energies     occupation 
      1      -4.9404      2.00000
      2      -3.2391      2.00000
      3       0.2884      2.00000
      4       0.9463      2.00000
      5       4.1097      0.00000
      6       5.2981      0.00000
      7       8.4103      0.00000
      8       8.7828      0.00000

 k-point    38 :      -0.4167    0.3333    0.0000
  band No.  band energies     occupation 
      1      -4.6594      2.00000
      2      -3.5533      2.00000
      3      -0.0778      2.00000
      4       1.0512      2.00000
      5       4.2058      0.00000
      6       6.3606      0.00000
      7       8.2782      0.00000
      8       8.4978      0.00000

 k-point    39 :      -0.3333    0.3333    0.0000
  band No.  band energies     occupation 
      1      -4.8601      2.00000
      2      -3.3272      2.00000
      3      -0.2103      2.00000
      4       1.2513      2.00000
      5       4.3613      0.00000
      6       7.5173      0.00000
      7       7.9648      0.00000
      8       8.0748      0.00000

 k-point    40 :       0.4167    0.4167    0.0000
  band No.  band energies     occupation 
      1      -5.0100      2.00000
      2      -3.1740      2.00000
      3       0.8143      2.00000
      4       0.8143      2.00000
      5       3.7607      0.00000
      6       4.2759      0.00000
      7       9.4875      0.00000
      8       9.4875      0.00000

 k-point    41 :       0.5000    0.4167    0.0000
  band No.  band energies     occupation 
      1      -4.5791      2.00000
      2      -3.6739      2.00000
      3       0.5583      2.00000
      4       0.7873      2.00000
      5       3.9332      0.00000
      6       4.3455      0.00000
      7       9.5649      0.00000
      8       9.6678      0.00000

 k-point    42 :      -0.4167    0.4167    0.0000
  band No.  band energies     occupation 
      1      -4.3060      2.00000
      2      -3.9403      2.00000
      3       0.1601      2.00000
      4       0.8690      2.00000
      5       4.0398      0.00000
      6       5.1849      0.00000
      7       9.2269      0.00000
      8       9.2939      0.00000

 k-point    43 :       0.5000    0.5000    0.0000
  band No.  band energies     occupation 
      1      -4.1456      2.00000
      2      -4.1456      2.00000
      3       0.7326      2.00000
      4       0.7326      2.00000
      5       3.9102      0.00000
      6       3.9102      0.00000
      7      10.0509      0.00000
      8      10.0509      0.00000

 k-point    44 :       0.2500    0.1667    0.0833
  band No.  band energies     occupation 
      1      -6.6828      2.00000
      2      -0.1982      2.00000
      3       1.6595      2.00000
      4       2.1990      2.00000
      5       4.5791      0.00000
      6       4.9226      0.00000
      7       6.1950      0.00000
      8       6.6285      0.00000

 k-point    45 :       0.3333    0.1667    0.0833
  band No.  band energies     occupation 
      1      -6.3740      2.00000
      2      -1.0836      2.00000
      3       1.2324      2.00000
      4       2.0101      2.00000
      5       4.5566      0.00000
      6       5.3283      0.00000
      7       6.5651      0.00000
      8       7.0605      0.00000

 k-point    46 :       0.4167    0.1667    0.0833
  band No.  band energies     occupation 
      1      -5.9777      2.00000
      2      -1.9716      2.00000
      3       0.9620      2.00000
      4       1.7934      2.00000
      5       4.4093      0.00000
      6       5.7345      0.00000
      7       6.7007      0.00000
      8       7.6034      0.00000

 k-point    47 :       0.5000    0.1667    0.0833
  band No.  band energies     occupation 
      1      -5.5746      2.00000
      2      -2.6946      2.00000
      3       0.8144      2.00000
      4       1.6357      2.00000
      5       4.2964      0.00000
      6       5.8893      0.00000
      7       6.7053      0.00000
      8       8.4485      0.00000

 k-point    48 :      -0.4167    0.1667    0.0833
  band No.  band energies     occupation 
      1      -5.3754      2.00000
      2      -3.0038      2.00000
      3       0.7678      2.00000
      4       1.5789      2.00000
      5       4.2558      0.00000
      6       5.9132      0.00000
      7       6.6967      0.00000
      8       9.1858      0.00000

 k-point    49 :       0.3333    0.2500    0.0833
  band No.  band energies     occupation 
      1      -6.2598      2.00000
      2      -1.2172      2.00000
      3       1.1613      2.00000
      4       1.5891      2.00000
      5       4.5449      0.00000
      6       5.1809      0.00000
      7       6.9846      0.00000
      8       7.2730      0.00000

 k-point    50 :       0.4167    0.2500    0.0833
  band No.  band energies     occupation 
      1      -5.8876      2.00000
      2      -1.9571      2.00000
      3       0.7510      2.00000
      4       1.4056      2.00000
      5       4.7189      0.00000
      6       5.4751      0.00000
      7       6.9077      0.00000
      8       7.6384      0.00000

 k-point    51 :       0.5000    0.2500    0.0833
  band No.  band energies     occupation 
      1      -5.4687      2.00000
      2      -2.6541      2.00000
      3       0.4458      2.00000
      4       1.2756      2.00000
      5       4.7014      0.00000
      6       5.9883      0.00000
      7       7.0577      0.00000
      8       7.7662      0.00000

 k-point    52 :      -0.4167    0.2500    0.0833
  band No.  band energies     occupation 
      1      -5.1644      2.00000
      2      -3.0915      2.00000
      3       0.2538      2.00000
      4       1.2643      2.00000
      5       4.6990      0.00000
      6       6.1283      0.00000
      7       7.4518      0.00000
      8       8.1487      0.00000

 k-point    53 :      -0.3333    0.2500    0.0833
  band No.  band energies     occupation 
      1      -5.2479      2.00000
      2      -2.9756      2.00000
      3       0.1962      2.00000
      4       1.3745      2.00000
      5       4.7581      0.00000
      6       6.1211      0.00000
      7       7.3804      0.00000
      8       8.3449      0.00000

 k-point    54 :      -0.2500    0.2500    0.0833
  band No.  band energies     occupation 
      1      -5.6257      2.00000
      2      -2.4142      2.00000
      3       0.3082      2.00000
      4       1.5802      2.00000
      5       4.8552      0.00000
      6       5.9970      0.00000
      7       7.1055      0.00000
      8       7.6261      0.00000

 k-point    55 :      -0.1667    0.2500    0.0833
  band No.  band energies     occupation 
      1      -6.0365      2.00000
      2      -1.7230      2.00000
      3       0.6413      2.00000
      4       1.8272      2.00000
      5       4.8837      0.00000
      6       5.5728      0.00000
      7       6.9921      0.00000
      8       7.0808      0.00000

 k-point    56 :       0.4167    0.3333    0.0833
  band No.  band energies     occupation 
      1      -5.6820      2.00000
      2      -2.2289      2.00000
      3       0.7936      2.00000
      4       1.0802      2.00000
      5       4.2846      0.00000
      6       5.0533      0.00000
      7       7.5971      0.00000
      8       8.4065      0.00000

 k-point    57 :       0.5000    0.3333    0.0833
  band No.  band energies     occupation 
      1      -5.2653      2.00000
      2      -2.8296      2.00000
      3       0.4026      2.00000
      4       0.9429      2.00000
      5       4.5329      0.00000
      6       5.4440      0.00000
      7       7.4157      0.00000
      8       8.6855      0.00000

 k-point    58 :      -0.4167    0.3333    0.0833
  band No.  band energies     occupation 
      1      -4.8868      2.00000
      2      -3.3040      2.00000
      3       0.0575      2.00000
      4       0.9448      2.00000
      5       4.6148      0.00000
      6       6.3806      0.00000
      7       7.2727      0.00000
      8       8.5555      0.00000

 k-point    59 :      -0.3333    0.3333    0.0833
  band No.  band energies     occupation 
      1      -4.8590      2.00000
      2      -3.3335      2.00000
      3      -0.1224      2.00000
      4       1.0754      2.00000
      5       4.7315      0.00000
      6       6.9259      0.00000
      7       7.7509      0.00000
      8       7.9645      0.00000

 k-point    60 :      -0.2500    0.3333    0.0833
  band No.  band energies     occupation 
      1      -5.2114      2.00000
      2      -2.9148      2.00000
      3      -0.0579      2.00000
      4       1.3050      2.00000
      5       4.8747      0.00000
      6       6.6543      0.00000
      7       7.2691      0.00000
      8       8.1304      0.00000

 k-point    61 :       0.5000    0.4167    0.0833
  band No.  band energies     occupation 
      1      -4.9654      2.00000
      2      -3.2097      2.00000
      3       0.5912      2.00000
      4       0.7336      2.00000
      5       4.1992      0.00000
      6       4.6292      0.00000
      7       8.5732      0.00000
      8       9.4195      0.00000

 k-point    62 :      -0.4167    0.4167    0.0833
  band No.  band energies     occupation 
      1      -4.5416      2.00000
      2      -3.6771      2.00000
      3       0.2185      2.00000
      4       0.7018      2.00000
      5       4.4242      0.00000
      6       5.2472      0.00000
      7       8.3798      0.00000
      8       9.1966      0.00000

 k-point    63 :      -0.3333    0.4167    0.0833
  band No.  band energies     occupation 
      1      -4.4825      2.00000
      2      -3.7239      2.00000
      3      -0.0884      2.00000
      4       0.8356      2.00000
      5       4.5563      0.00000
      6       6.3744      0.00000
      7       8.1204      0.00000
      8       8.2454      0.00000

 k-point    64 :      -0.4167    0.5000    0.0833
  band No.  band energies     occupation 
      1      -4.1320      2.00000
      2      -4.1320      2.00000
      3       0.5693      2.00000
      4       0.5693      2.00000
      5       4.3153      0.00000
      6       4.3153      0.00000
      7       9.4983      0.00000
      8       9.4983      0.00000

 k-point    65 :       0.5000    0.3333    0.1667
  band No.  band energies     occupation 
      1      -5.4968      2.00000
      2      -2.5233      2.00000
      3       0.3178      2.00000
      4       1.1757      2.00000
      5       5.3369      0.00000
      6       5.4664      0.00000
      7       6.7092      0.00000
      8       8.3030      0.00000

 k-point    66 :      -0.4167    0.3333    0.1667
  band No.  band energies     occupation 
      1      -5.0812      2.00000
      2      -3.0681      2.00000
      3       0.0686      2.00000
      4       0.9661      2.00000
      5       5.3825      0.00000
      6       5.9873      0.00000
      7       6.8984      0.00000
      8       8.5155      0.00000

 k-point    67 :      -0.3333    0.3333    0.1667
  band No.  band energies     occupation 
      1      -4.8578      2.00000
      2      -3.3398      2.00000
      3      -0.0098      2.00000
      4       0.8854      2.00000
      5       5.3716      0.00000
      6       6.0705      0.00000
      7       7.8295      0.00000
      8       7.8397      0.00000

 k-point    68 :      -0.4167    0.4167    0.1667
  band No.  band energies     occupation 
      1      -4.8418      2.00000
      2      -3.3214      2.00000
      3       0.1952      2.00000
      4       0.6332      2.00000
      5       5.2410      0.00000
      6       5.4992      0.00000
      7       7.1879      0.00000
      8       8.9970      0.00000

 k-point    69 :      -0.3333    0.4167    0.1667
  band No.  band energies     occupation 
      1      -4.5013      2.00000
      2      -3.6833      2.00000
      3       0.0111      2.00000
      4       0.5309      2.00000
      5       5.4483      0.00000
      6       6.4089      0.00000
      7       7.0286      0.00000
      8       7.9826      0.00000

 k-point    70 :      -0.2500    0.4167    0.1667
  band No.  band energies     occupation 
      1      -4.6685      2.00000
      2      -3.5039      2.00000
      3      -0.0718      2.00000
      4       0.6768      2.00000
      5       5.5774      0.00000
      6       6.5596      0.00000
      7       6.9807      0.00000
      8       7.8291      0.00000

 k-point    71 :      -0.3333    0.5000    0.1667
  band No.  band energies     occupation 
      1      -4.1042      2.00000
      2      -4.1042      2.00000
      3       0.2978      2.00000
      4       0.2978      2.00000
      5       5.3082      0.00000
      6       5.3082      0.00000
      7       8.1652      0.00000
      8       8.1652      0.00000

 k-point    72 :      -0.2500    0.5000    0.2500
  band No.  band energies     occupation 
      1      -4.0899      2.00000
      2      -4.0899      2.00000
      3       0.1801      2.00000
      4       0.1801      2.00000
      5       6.3826      0.00000
      6       6.3826      0.00000
      7       6.9443      0.00000
      8       6.9443      0.00000


--------------------------------------------------------------------------------------------------------


 soft charge-density along one line, spin component           1
         0         1         2         3         4         5         6         7         8         9
 total charge-density along one line
 
 pseudopotential strength for first ion, spin component:           1
 18.781   0.002   0.000   0.000   0.000  -0.000  -0.000  -0.000
  0.002   0.006  -0.000  -0.000  -0.000   0.000   0.000   0.000
  0.000  -0.000   4.218  -0.000  -0.000  -0.002   0.000   0.000
  0.000  -0.000  -0.000   4.218  -0.000   0.000  -0.002   0.000
  0.000  -0.000  -0.000  -0.000   4.218   0.000   0.000  -0.002
 -0.000   0.000  -0.002   0.000   0.000   0.005  -0.000  -0.000
 -0.000   0.000   0.000  -0.002   0.000  -0.000   0.005  -0.000
 -0.000   0.000   0.000   0.000  -0.002  -0.000  -0.000   0.005
 total augmentation occupancy for first ion, spin component:           1
  1.618  -0.323  -0.000   0.000   0.000   0.000   0.000   0.000
 -0.323   0.324  -0.000  -0.000  -0.000   0.000   0.000   0.000
 -0.000  -0.000   0.821   0.000   0.000  -0.326   0.000   0.000
  0.000  -0.000   0.000   0.821   0.000   0.000  -0.326   0.000
  0.000  -0.000  -0.000  -0.000   0.821   0.000   0.000  -0.326
 -0.000   0.000  -0.326   0.000   0.000   0.158   0.000   0.000
 -0.000   0.000   0.000  -0.326   0.000   0.000   0.158   0.000
  0.000   0.000   0.000   0.000  -0.326   0.000   0.000   0.158


------------------------ aborting loop because EDIFF is reached ----------------------------------------


    CHARGE:  cpu time    0.02: real time    0.03
    FORLOC:  cpu time    0.00: real time    0.00
    FORNL :  cpu time    0.04: real time    0.04
    STRESS:  cpu time    0.37: real time    0.38
    FORCOR:  cpu time    0.02: real time    0.02
    FORHAR:  cpu time    0.00: real time    0.01
    MIXING:  cpu time    0.00: real time    0.00
    OFIELD:  cpu time    0.00: real time    0.00

  FORCE on cell =-STRESS in cart. coord.  units (eV):
  Direction    XX          YY          ZZ          XY          YZ          ZX
  --------------------------------------------------------------------------------------
  Alpha Z     2.34984     2.34984     2.34984
  Ewald     -67.59903   -67.59903   -67.59903     0.00000    -0.00000     0.00000
  Hartree     6.51937     6.51937     6.51937     0.00000     0.00000     0.00000
  E(xc)     -23.62868   -23.62868   -23.62868    -0.00000    -0.00000    -0.00000
  Local     -35.04466   -35.04466   -35.04466     0.00001     0.00001     0.00001
  n-local    75.40936    76.82704    71.17283     1.70025    -0.88620     0.28216
  augment   -12.00339   -12.00339   -12.00339    -0.00001    -0.00001    -0.00001
  Kinetic    52.16162    51.91092    46.00008     3.59699    -1.19377     1.03349
  Fock        0.00000     0.00000     0.00000     0.00000     0.00000     0.00000
  -------------------------------------------------------------------------------------
  Total      -4.91262    -4.91262    -4.91262    -0.00000     0.00000    -0.00000
  in kB    -137.35605  -137.35605  -137.35605    -0.00000     0.00000    -0.00000
  external pressure =     -137.36 kB  Pullay stress =        0.00 kB


 VOLUME and BASIS-vectors are now :
 -----------------------------------------------------------------------------
  energy-cutoff  :      600.00
  volume of cell :       57.30
      direct lattice vectors                 reciprocal lattice vectors
     0.000000000  3.059956427  3.059956427    -0.163401020  0.163401020  0.163401020
     3.059956427  0.000000000  3.059956427     0.163401020 -0.163401020  0.163401020
     3.059956427  3.059956427  0.000000000     0.163401020  0.163401020 -0.163401020

  length of vectors
     4.327431879  4.327431879  4.327431879     0.283018868  0.283018868  0.283018868


 FORCES acting on ions
    electron-ion (+dipol)            ewald-force                    non-local-force                 convergence-correction
 -----------------------------------------------------------------------------------------------
   0.477E-07 0.477E-07 0.586E-07   -.960E-15 0.115E-14 -.116E-14   -.694E-17 -.278E-16 0.226E-16   -.427E-13 -.427E-13 -.420E-13
   -.477E-07 -.477E-07 -.586E-07   0.103E-14 -.119E-14 0.837E-15   0.208E-16 0.347E-16 -.104E-16   0.474E-13 0.476E-13 0.461E-13
 -----------------------------------------------------------------------------------------------
   0.112E-12 0.360E-13 -.288E-14   0.739E-16 -.426E-16 -.325E-15   0.139E-16 0.694E-17 0.121E-16   0.475E-14 0.489E-14 0.408E-14
 
 
 POSITION                                       TOTAL-FORCE (eV/Angst)
 -----------------------------------------------------------------------------------
      0.00000      0.00000      0.00000         0.000000      0.000000     -0.000000
      1.52998      1.52998      1.52998        -0.000000     -0.000000      0.000000
 -----------------------------------------------------------------------------------
    total drift:                                0.000000      0.000000      0.000000


--------------------------------------------------------------------------------------------------------



  FREE ENERGIE OF THE ION-ELECTRON SYSTEM (eV)
  ---------------------------------------------------
  free  energy   TOTEN  =        -9.87429131 eV

  energy  without entropy=       -9.87420714  energy(sigma->0) =       -9.87424923
 


--------------------------------------------------------------------------------------------------------


    POTLOK:  cpu time    0.02: real time    0.02


--------------------------------------------------------------------------------------------------------


 writing wavefunctions
     LOOP+:  cpu time   10.04: real time   10.52
    4ORBIT:  cpu time    0.00: real time    0.00

 total amount of memory used by VASP on root node    48125. kBytes
========================================================================

   base      :      30000. kBytes
   nonl-proj :       8964. kBytes
   fftplans  :       1619. kBytes
   grid      :       3048. kBytes
   one-center:          6. kBytes
   wavefun   :       4488. kBytes
 
  
  
 General timing and accounting informations for this job:
 ========================================================
  
                  Total CPU time used (sec):       10.548
                            User time (sec):       10.176
                          System time (sec):        0.372
                         Elapsed time (sec):       11.121
  
                   Maximum memory used (kb):       56320.
                   Average memory used (kb):           0.
  
                          Minor page faults:         9142
                          Major page faults:            5
                 Voluntary context switches:          702
