 vasp.5.3.5 31Mar14 (build Jun 01 2017 17:55:53) complex                        
  
 executed on             LinuxIFC date 2020.11.10  15:16:57
 running on    4 total cores
 distrk:  each k-point on    4 cores,    1 groups
 distr:  one band on NCORES_PER_BAND=   1 cores,    4 groups


--------------------------------------------------------------------------------------------------------


 INCAR:
 POTCAR:   PAW_PBE Si 05Jan2001                   
 POTCAR:   PAW_PBE Si 05Jan2001                   
   VRHFIN =Si: s2p2                                                             
   LEXCH  = PE                                                                  
   EATOM  =   103.0669 eV,    7.5752 Ry                                         
                                                                                
   TITEL  = PAW_PBE Si 05Jan2001                                                
   LULTRA =        F    use ultrasoft PP ?                                      
   IUNSCR =        1    unscreen: 0-lin 1-nonlin 2-no                           
   RPACOR =    1.500    partial core radius                                     
   POMASS =   28.085; ZVAL   =    4.000    mass and valenz                      
   RCORE  =    1.900    outmost cutoff radius                                   
   RWIGS  =    2.480; RWIGS  =    1.312    wigner-seitz radius (au A)           
   ENMAX  =  245.345; ENMIN  =  184.009 eV                                      
   ICORE  =        2    local potential                                         
   LCOR   =        T    correct aug charges                                     
   LPAW   =        T    paw PP                                                  
   EAUG   =  322.069                                                            
   DEXC   =    -.007                                                            
   RMAX   =    2.944    core radius for proj-oper                               
   RAUG   =    1.300    factor for augmentation sphere                          
   RDEP   =    1.993    radius for radial grids                                 
   QCUT   =   -4.246; QGAM   =    8.493    optimization parameters              
                                                                                
   Description                                                                  
     l     E      TYP  RCUT    TYP  RCUT                                        
     0   .000     23  1.900                                                     
     0   .000     23  1.900                                                     
     1   .000     23  1.900                                                     
     1   .000     23  1.900                                                     
     2   .000      7  1.900                                                     
  local pseudopotential read in
  partial core-charges read in
  atomic valenz-charges read in
  non local Contribution for L=           0  read in
    real space projection operators read in
  non local Contribution for L=           0  read in
    real space projection operators read in
  non local Contribution for L=           1  read in
    real space projection operators read in
  non local Contribution for L=           1  read in
    real space projection operators read in
    PAW grid and wavefunctions read in
 
   number of l-projection  operators is LMAX  =           4
   number of lm-projection operators is LMMAX =           8
 
 PAW_PBE Si 05Jan2001                   :
 energy of atom  1       EATOM= -103.0669
 kinetic energy error for atom=    0.0003 (will be added to EATOM!!)
 
 
 POSCAR: Si
  positions in direct lattice
  velocities in cartesian coordinates
  No initial velocities read in
 exchange correlation table for  LEXCH =        8
   RHO(1)=    0.500       N(1)  =     2000
   RHO(2)=  100.500       N(2)  =     4000
 


--------------------------------------------------------------------------------------------------------


 ion  position               nearest neighbor table
   1  0.000  0.000  0.000-   2 2.05   2 2.05   2 2.05   2 2.05
   2  0.250  0.250  0.250-   1 2.05   1 2.05   1 2.05   1 2.05
 
  LATTYP: Found a face centered cubic cell.
 ALAT       =     4.7342722074
  
  Lattice vectors:
  
 A1 = (   0.0000000000,   2.3671361037,   2.3671361037)
 A2 = (   2.3671361037,   0.0000000000,   2.3671361037)
 A3 = (   2.3671361037,   2.3671361037,   0.0000000000)


Analysis of symmetry for initial positions (statically):
=====================================================================
 Subroutine PRICEL returns:
 Original cell was already a primitive cell.
 

 Routine SETGRP: Setting up the symmetry group for a 
 face centered cubic supercell.


 Subroutine GETGRP returns: Found 48 space group operations
 (whereof 24 operations were pure point group operations)
 out of a pool of 48 trial point group operations.


The static configuration has the point symmetry T_d .
 The point group associated with its full space group is O_h .


Analysis of symmetry for dynamics (positions and initial velocities):
=====================================================================
 Subroutine PRICEL returns:
 Original cell was already a primitive cell.
 

 Routine SETGRP: Setting up the symmetry group for a 
 face centered cubic supercell.


 Subroutine GETGRP returns: Found 48 space group operations
 (whereof 24 operations were pure point group operations)
 out of a pool of 48 trial point group operations.


The dynamic configuration has the point symmetry T_d .
 The point group associated with its full space group is O_h .


Analysis of constrained symmetry for selective dynamics:
=====================================================================
 Subroutine PRICEL returns:
 Original cell was already a primitive cell.
 

 Routine SETGRP: Setting up the symmetry group for a 
 face centered cubic supercell.


 Subroutine GETGRP returns: Found 48 space group operations
 (whereof 24 operations were pure point group operations)
 out of a pool of 48 trial point group operations.


The constrained configuration has the point symmetry T_d .
 The point group associated with its full space group is O_h .
 
 
 KPOINTS: Gamma centered Monkhorst-Pack           

Automatic generation of k-mesh.
Space group operators:
 irot       det(A)        alpha          n_x          n_y          n_z        tau_x        tau_y        tau_z
    1     1.000000     0.000000     1.000000     0.000000     0.000000     0.000000     0.000000     0.000000
    2     1.000000   120.000000    -0.577350    -0.577350    -0.577350     0.000000     0.000000     0.000000
    3     1.000000   120.000000     0.577350     0.577350     0.577350     0.000000     0.000000     0.000000
    4    -1.000000    90.000000     0.000000     0.000000    -1.000000     0.000000     0.000000     0.000000
    5    -1.000000   180.000000     0.000000     0.707107     0.707107     0.000000     0.000000     0.000000
    6    -1.000000    90.000000     0.000000     1.000000     0.000000     0.000000     0.000000     0.000000
    7     1.000000   180.000000     0.000000     0.000000     1.000000     0.000000     0.000000     0.000000
    8     1.000000   120.000000    -0.577350     0.577350     0.577350     0.000000     0.000000     0.000000
    9     1.000000   120.000000    -0.577350     0.577350    -0.577350     0.000000     0.000000     0.000000
   10    -1.000000    90.000000     0.000000     0.000000     1.000000     0.000000     0.000000     0.000000
   11    -1.000000    90.000000    -1.000000     0.000000     0.000000     0.000000     0.000000     0.000000
   12    -1.000000   180.000000     0.707107     0.000000     0.707107     0.000000     0.000000     0.000000
   13     1.000000   120.000000     0.577350    -0.577350     0.577350     0.000000     0.000000     0.000000
   14     1.000000   120.000000    -0.577350    -0.577350     0.577350     0.000000     0.000000     0.000000
   15     1.000000   180.000000     1.000000     0.000000     0.000000     0.000000     0.000000     0.000000
   16    -1.000000    90.000000     0.000000    -1.000000     0.000000     0.000000     0.000000     0.000000
   17    -1.000000   180.000000     0.707107     0.707107     0.000000     0.000000     0.000000     0.000000
   18    -1.000000    90.000000     1.000000     0.000000     0.000000     0.000000     0.000000     0.000000
   19     1.000000   120.000000     0.577350    -0.577350    -0.577350     0.000000     0.000000     0.000000
   20     1.000000   180.000000     0.000000     1.000000     0.000000     0.000000     0.000000     0.000000
   21     1.000000   120.000000     0.577350     0.577350    -0.577350     0.000000     0.000000     0.000000
   22    -1.000000   180.000000     0.000000    -0.707107     0.707107     0.000000     0.000000     0.000000
   23    -1.000000   180.000000     0.707107    -0.707107     0.000000     0.000000     0.000000     0.000000
   24    -1.000000   180.000000     0.707107     0.000000    -0.707107     0.000000     0.000000     0.000000
   25    -1.000000     0.000000     1.000000     0.000000     0.000000     0.250000     0.250000     0.250000
   26    -1.000000   120.000000    -0.577350    -0.577350    -0.577350     0.250000     0.250000     0.250000
   27    -1.000000   120.000000     0.577350     0.577350     0.577350     0.250000     0.250000     0.250000
   28     1.000000    90.000000     0.000000     0.000000    -1.000000     0.250000     0.250000     0.250000
   29     1.000000   180.000000     0.000000     0.707107     0.707107     0.250000     0.250000     0.250000
   30     1.000000    90.000000     0.000000     1.000000     0.000000     0.250000     0.250000     0.250000
   31    -1.000000   180.000000     0.000000     0.000000     1.000000     0.250000     0.250000     0.250000
   32    -1.000000   120.000000    -0.577350     0.577350     0.577350     0.250000     0.250000     0.250000
   33    -1.000000   120.000000    -0.577350     0.577350    -0.577350     0.250000     0.250000     0.250000
   34     1.000000    90.000000     0.000000     0.000000     1.000000     0.250000     0.250000     0.250000
   35     1.000000    90.000000    -1.000000     0.000000     0.000000     0.250000     0.250000     0.250000
   36     1.000000   180.000000     0.707107     0.000000     0.707107     0.250000     0.250000     0.250000
   37    -1.000000   120.000000     0.577350    -0.577350     0.577350     0.250000     0.250000     0.250000
   38    -1.000000   120.000000    -0.577350    -0.577350     0.577350     0.250000     0.250000     0.250000
   39    -1.000000   180.000000     1.000000     0.000000     0.000000     0.250000     0.250000     0.250000
   40     1.000000    90.000000     0.000000    -1.000000     0.000000     0.250000     0.250000     0.250000
   41     1.000000   180.000000     0.707107     0.707107     0.000000     0.250000     0.250000     0.250000
   42     1.000000    90.000000     1.000000     0.000000     0.000000     0.250000     0.250000     0.250000
   43    -1.000000   120.000000     0.577350    -0.577350    -0.577350     0.250000     0.250000     0.250000
   44    -1.000000   180.000000     0.000000     1.000000     0.000000     0.250000     0.250000     0.250000
   45    -1.000000   120.000000     0.577350     0.577350    -0.577350     0.250000     0.250000     0.250000
   46     1.000000   180.000000     0.000000    -0.707107     0.707107     0.250000     0.250000     0.250000
   47     1.000000   180.000000     0.707107    -0.707107     0.000000     0.250000     0.250000     0.250000
   48     1.000000   180.000000     0.707107     0.000000    -0.707107     0.250000     0.250000     0.250000
 
 Subroutine IBZKPT returns following result:
 ===========================================
 
 Found     72 irreducible k-points:
 
 Following reciprocal coordinates:
            Coordinates               Weight
  0.000000  0.000000  0.000000      1.000000
  0.083333  0.000000  0.000000      8.000000
  0.166667  0.000000  0.000000      8.000000
  0.250000  0.000000  0.000000      8.000000
  0.333333  0.000000  0.000000      8.000000
  0.416667  0.000000  0.000000      8.000000
  0.500000  0.000000  0.000000      4.000000
  0.083333  0.083333  0.000000      6.000000
  0.166667  0.083333  0.000000     24.000000
  0.250000  0.083333  0.000000     24.000000
  0.333333  0.083333  0.000000     24.000000
  0.416667  0.083333  0.000000     24.000000
  0.500000  0.083333  0.000000     24.000000
 -0.416667  0.083333  0.000000     24.000000
 -0.333333  0.083333  0.000000     24.000000
 -0.250000  0.083333  0.000000     24.000000
 -0.166667  0.083333  0.000000     24.000000
 -0.083333  0.083333  0.000000     12.000000
  0.166667  0.166667  0.000000      6.000000
  0.250000  0.166667  0.000000     24.000000
  0.333333  0.166667  0.000000     24.000000
  0.416667  0.166667  0.000000     24.000000
  0.500000  0.166667  0.000000     24.000000
 -0.416667  0.166667  0.000000     24.000000
 -0.333333  0.166667  0.000000     24.000000
 -0.250000  0.166667  0.000000     24.000000
 -0.166667  0.166667  0.000000     12.000000
  0.250000  0.250000  0.000000      6.000000
  0.333333  0.250000  0.000000     24.000000
  0.416667  0.250000  0.000000     24.000000
  0.500000  0.250000  0.000000     24.000000
 -0.416667  0.250000  0.000000     24.000000
 -0.333333  0.250000  0.000000     24.000000
 -0.250000  0.250000  0.000000     12.000000
  0.333333  0.333333  0.000000      6.000000
  0.416667  0.333333  0.000000     24.000000
  0.500000  0.333333  0.000000     24.000000
 -0.416667  0.333333  0.000000     24.000000
 -0.333333  0.333333  0.000000     12.000000
  0.416667  0.416667  0.000000      6.000000
  0.500000  0.416667  0.000000     24.000000
 -0.416667  0.416667  0.000000     12.000000
  0.500000  0.500000  0.000000      3.000000
  0.250000  0.166667  0.083333     24.000000
  0.333333  0.166667  0.083333     48.000000
  0.416667  0.166667  0.083333     48.000000
  0.500000  0.166667  0.083333     48.000000
 -0.416667  0.166667  0.083333     24.000000
  0.333333  0.250000  0.083333     24.000000
  0.416667  0.250000  0.083333     48.000000
  0.500000  0.250000  0.083333     48.000000
 -0.416667  0.250000  0.083333     48.000000
 -0.333333  0.250000  0.083333     48.000000
 -0.250000  0.250000  0.083333     48.000000
 -0.166667  0.250000  0.083333     24.000000
  0.416667  0.333333  0.083333     24.000000
  0.500000  0.333333  0.083333     48.000000
 -0.416667  0.333333  0.083333     48.000000
 -0.333333  0.333333  0.083333     48.000000
 -0.250000  0.333333  0.083333     24.000000
  0.500000  0.416667  0.083333     24.000000
 -0.416667  0.416667  0.083333     48.000000
 -0.333333  0.416667  0.083333     24.000000
 -0.416667  0.500000  0.083333     12.000000
  0.500000  0.333333  0.166667     24.000000
 -0.416667  0.333333  0.166667     48.000000
 -0.333333  0.333333  0.166667     24.000000
 -0.416667  0.416667  0.166667     24.000000
 -0.333333  0.416667  0.166667     48.000000
 -0.250000  0.416667  0.166667     24.000000
 -0.333333  0.500000  0.166667     12.000000
 -0.250000  0.500000  0.250000      6.000000
 
 Following cartesian coordinates:
            Coordinates               Weight
  0.000000  0.000000  0.000000      1.000000
 -0.083333  0.083333  0.083333      8.000000
 -0.166667  0.166667  0.166667      8.000000
 -0.250000  0.250000  0.250000      8.000000
 -0.333333  0.333333  0.333333      8.000000
 -0.416667  0.416667  0.416667      8.000000
 -0.500000  0.500000  0.500000      4.000000
  0.000000  0.000000  0.166667      6.000000
 -0.083333  0.083333  0.250000     24.000000
 -0.166667  0.166667  0.333333     24.000000
 -0.250000  0.250000  0.416667     24.000000
 -0.333333  0.333333  0.500000     24.000000
 -0.416667  0.416667  0.583333     24.000000
  0.500000 -0.500000 -0.333333     24.000000
  0.416667 -0.416667 -0.250000     24.000000
  0.333333 -0.333333 -0.166667     24.000000
  0.250000 -0.250000 -0.083333     24.000000
  0.166667 -0.166667  0.000000     12.000000
  0.000000  0.000000  0.333333      6.000000
 -0.083333  0.083333  0.416667     24.000000
 -0.166667  0.166667  0.500000     24.000000
 -0.250000  0.250000  0.583333     24.000000
 -0.333333  0.333333  0.666667     24.000000
  0.583333 -0.583333 -0.250000     24.000000
  0.500000 -0.500000 -0.166667     24.000000
  0.416667 -0.416667 -0.083333     24.000000
  0.333333 -0.333333  0.000000     12.000000
  0.000000  0.000000  0.500000      6.000000
 -0.083333  0.083333  0.583333     24.000000
 -0.166667  0.166667  0.666667     24.000000
 -0.250000  0.250000  0.750000     24.000000
  0.666667 -0.666667 -0.166667     24.000000
  0.583333 -0.583333 -0.083333     24.000000
  0.500000 -0.500000  0.000000     12.000000
  0.000000  0.000000  0.666667      6.000000
 -0.083333  0.083333  0.750000     24.000000
 -0.166667  0.166667  0.833333     24.000000
  0.750000 -0.750000 -0.083333     24.000000
  0.666667 -0.666667  0.000000     12.000000
  0.000000  0.000000  0.833333      6.000000
 -0.083333  0.083333  0.916667     24.000000
  0.833333 -0.833333  0.000000     12.000000
  0.000000  0.000000  1.000000      3.000000
  0.000000  0.166667  0.333333     24.000000
 -0.083333  0.250000  0.416667     48.000000
 -0.166667  0.333333  0.500000     48.000000
 -0.250000  0.416667  0.583333     48.000000
  0.666667 -0.500000 -0.333333     24.000000
  0.000000  0.166667  0.500000     24.000000
 -0.083333  0.250000  0.583333     48.000000
 -0.166667  0.333333  0.666667     48.000000
  0.750000 -0.583333 -0.250000     48.000000
  0.666667 -0.500000 -0.166667     48.000000
  0.583333 -0.416667 -0.083333     48.000000
  0.500000 -0.333333  0.000000     24.000000
 -0.000000  0.166667  0.666667     24.000000
 -0.083333  0.250000  0.750000     48.000000
  0.833333 -0.666667 -0.166667     48.000000
  0.750000 -0.583333 -0.083333     48.000000
  0.666667 -0.500000  0.000000     24.000000
  0.000000  0.166667  0.833333     24.000000
  0.916667 -0.750000 -0.083333     48.000000
  0.833333 -0.666667  0.000000     24.000000
  1.000000 -0.833333  0.000000     12.000000
  0.000000  0.333333  0.666667     24.000000
  0.916667 -0.583333 -0.250000     48.000000
  0.833333 -0.500000 -0.166667     24.000000
  1.000000 -0.666667 -0.166667     24.000000
  0.916667 -0.583333 -0.083333     48.000000
  0.833333 -0.500000  0.000000     24.000000
  1.000000 -0.666667  0.000000     12.000000
  1.000000 -0.500000  0.000000      6.000000
 


--------------------------------------------------------------------------------------------------------




 Dimension of arrays:
   k-points           NKPTS =     72   k-points in BZ     NKDIM =     72   number of bands    NBANDS=      8
   number of dos      NEDOS =    301   number of ions     NIONS =      2
   non local maximal  LDIM  =      4   non local SUM 2l+1 LMDIM =      8
   total plane-waves  NPLWV =   8000
   max r-space proj   IRMAX =      1   max aug-charges    IRDMAX=  10281
   dimension x,y,z NGX =    20 NGY =   20 NGZ =   20
   dimension x,y,z NGXF=    40 NGYF=   40 NGZF=   40
   support grid    NGXF=    40 NGYF=   40 NGZF=   40
   ions per type =               2
 NGX,Y,Z   is equivalent  to a cutoff of   9.93,  9.93,  9.93 a.u.
 NGXF,Y,Z  is equivalent  to a cutoff of  19.86, 19.86, 19.86 a.u.


 I would recommend the setting:
   dimension x,y,z NGX =    20 NGY =   20 NGZ =   20
 SYSTEM =  Si
 POSCAR =  Si

 Startparameter for this run:
   NWRITE =      2    write-flag & timer
   PREC   = normal    normal or accurate (medium, high low for compatibility)
   ISTART =      0    job   : 0-new  1-cont  2-samecut
   ICHARG =      2    charge: 1-file 2-atom 10-const
   ISPIN  =      1    spin polarized calculation?
   LNONCOLLINEAR =      F non collinear calculations
   LSORBIT =      F    spin-orbit coupling
   INIWAV =      1    electr: 0-lowe 1-rand  2-diag
   LASPH  =      F    aspherical Exc in radial PAW
   METAGGA=      F    non-selfconsistent MetaGGA calc.

 Electronic Relaxation 1
   ENCUT  =  600.0 eV  44.10 Ry    6.64 a.u.   6.69  6.69  6.69*2*pi/ulx,y,z
   ENINI  =  600.0     initial cutoff
   ENAUG  = 1200.0 eV  augmentation charge cutoff
   NELM   =    500;   NELMIN=  2; NELMDL= -5     # of ELM steps 
   EDIFF  = 0.1E-09   stopping-criterion for ELM
   LREAL  =      F    real-space projection
   NLSPLINE    = F    spline interpolate recip. space projectors
   LCOMPAT=      F    compatible to vasp.4.4
   GGA_COMPAT  = T    GGA compatible to vasp.4.4-vasp.4.6
   LMAXPAW     = -100 max onsite density
   LMAXMIX     =    2 max onsite mixed and CHGCAR
   VOSKOWN=      0    Vosko Wilk Nusair interpolation
   ROPT   =    0.00000
 Ionic relaxation
   EDIFFG = 0.1E-08   stopping-criterion for IOM
   NSW    =      0    number of steps for IOM
   NBLOCK =      1;   KBLOCK =      1    inner block; outer block 
   IBRION =     -1    ionic relax: 0-MD 1-quasi-New 2-CG
   NFREE  =      0    steps in history (QN), initial steepest desc. (CG)
   ISIF   =      2    stress and relaxation
   IWAVPR =     10    prediction:  0-non 1-charg 2-wave 3-comb
   ISYM   =      2    0-nonsym 1-usesym 2-fastsym
   LCORR  =      T    Harris-Foulkes like correction to forces

   POTIM  = 0.5000    time-step for ionic-motion
   TEIN   =    0.0    initial temperature
   TEBEG  =    0.0;   TEEND  =   0.0 temperature during run
   SMASS  =  -3.00    Nose mass-parameter (am)
   estimated Nose-frequenzy (Omega)   =  0.10E-29 period in steps =****** mass=  -0.256E-27a.u.
   SCALEE = 1.0000    scale energy and forces
   NPACO  =    256;   APACO  = 16.0  distance and # of slots for P.C.
   PSTRESS=    0.0 pullay stress

  Mass of Ions in am
   POMASS =  28.09
  Ionic Valenz
   ZVAL   =   4.00
  Atomic Wigner-Seitz radii
   RWIGS  =  -1.00
  virtual crystal weights 
   VCA    =   1.00
   NELECT =       8.0000    total number of electrons
   NUPDOWN=      -1.0000    fix difference up-down

 DOS related values:
   EMIN   =  10.00;   EMAX   =-10.00  energy-range for DOS
   EFERMI =   0.00
   ISMEAR =    -1;   SIGMA  =   0.03  broadening in eV -4-tet -1-fermi 0-gaus

 Electronic relaxation 2 (details)
   IALGO  =     38    algorithm
   LDIAG  =      T    sub-space diagonalisation (order eigenvalues)
   LSUBROT=      F    optimize rotation matrix (better conditioning)
   TURBO    =      0    0=normal 1=particle mesh
   IRESTART =      0    0=no restart 2=restart with 2 vectors
   NREBOOT  =      0    no. of reboots
   NMIN     =      0    reboot dimension
   EREF     =   0.00    reference energy to select bands
   IMIX   =      4    mixing-type and parameters
     AMIX     =   0.40;   BMIX     =  1.00
     AMIX_MAG =   1.60;   BMIX_MAG =  1.00
     AMIN     =   0.10
     WC   =   100.;   INIMIX=   1;  MIXPRE=   1;  MAXMIX= -45

 Intra band minimization:
   WEIMIN = 0.0000     energy-eigenvalue tresh-hold
   EBREAK =  0.31E-11  absolut break condition
   DEPER  =   0.30     relativ break condition  

   TIME   =   0.40     timestep for ELM

  volume/ion in A,a.u.               =      13.26        89.51
  Fermi-wavevector in a.u.,A,eV,Ry     =   1.097838  2.074613 16.398399  1.205248
  Thomas-Fermi vector in A             =   2.234205
 
 Write flags
   LWAVE  =      T    write WAVECAR
   LCHARG =      T    write CHGCAR
   LVTOT  =      F    write LOCPOT, total local potential
   LVHAR  =      F    write LOCPOT, Hartree potential only
   LELF   =      F    write electronic localiz. function (ELF)
   LORBIT =      0    0 simple, 1 ext, 2 COOP (PROOUT)


 Dipole corrections
   LMONO  =      F    monopole corrections only (constant potential shift)
   LDIPOL =      F    correct potential (dipole corrections)
   IDIPOL =      0    1-x, 2-y, 3-z, 4-all directions 
   EPSILON=  1.0000000 bulk dielectric constant

 Exchange correlation treatment:
   GGA     =    PE    GGA type
   LEXCH   =     8    internal setting for exchange type
   VOSKOWN=      0    Vosko Wilk Nusair interpolation
   LHFCALC =     F    Hartree Fock is set to
   LHFONE  =     F    Hartree Fock one center treatment
   AEXX    =    0.0000 exact exchange contribution

 Linear response parameters
   LEPSILON=     F    determine dielectric tensor
   LRPA    =     F    only Hartree local field effects (RPA)
   LNABLA  =     F    use nabla operator in PAW spheres
   LVEL    =     F    velocity operator in full k-point grid
   LINTERFAST=   F  fast interpolation
   KINTER  =     0    interpolate to denser k-point grid
   CSHIFT  =0.1000    complex shift for real part using Kramers Kronig
   OMEGAMAX=  -1.0    maximum frequency
   DEG_THRESHOLD= 0.2000000E-02 threshold for treating states as degnerate
   RTIME   =    0.100 relaxation time in fs

 Orbital magnetization related:
   ORBITALMAG=     F  switch on orbital magnetization
   LCHIMAG   =     F  perturbation theory with respect to B field
   DQ        =  0.001000  dq finite difference perturbation B field



--------------------------------------------------------------------------------------------------------


 Static calculation
 charge density and potential will be updated during run
 non-spin polarized calculation
 Variant of blocked Davidson
 Davidson routine will perform the subspace rotation
 perform sub-space diagonalisation
    after iterative eigenvector-optimisation
 modified Broyden-mixing scheme, WC =      100.0
 initial mixing is a Kerker type mixing with AMIX =  0.4000 and BMIX =      1.0000
 Hartree-type preconditioning will be used
 using additional bands            4
 reciprocal scheme for non local part
 use partial core corrections
 calculate Harris-corrections to forces 
   (improved forces if not selfconsistent)
 use gradient corrections 
 use of overlap-Matrix (Vanderbilt PP)
 Fermi-smearing in eV        SIGMA  =   0.03


--------------------------------------------------------------------------------------------------------


  energy-cutoff  :      600.00
  volume of cell :       26.53
      direct lattice vectors                 reciprocal lattice vectors
     0.000000000  2.367136104  2.367136104    -0.211225708  0.211225708  0.211225708
     2.367136104  0.000000000  2.367136104     0.211225708 -0.211225708  0.211225708
     2.367136104  2.367136104  0.000000000     0.211225708  0.211225708 -0.211225708

  length of vectors
     3.347635982  3.347635982  3.347635982     0.365853659  0.365853659  0.365853659


 
 k-points in units of 2pi/SCALE and weight: Gamma centered Monkhorst-Pack           
   0.00000000  0.00000000  0.00000000       0.001
  -0.08333333  0.08333333  0.08333333       0.005
  -0.16666667  0.16666667  0.16666667       0.005
  -0.25000000  0.25000000  0.25000000       0.005
  -0.33333333  0.33333333  0.33333333       0.005
  -0.41666667  0.41666667  0.41666667       0.005
  -0.50000000  0.50000000  0.50000000       0.002
   0.00000000  0.00000000  0.16666667       0.003
  -0.08333333  0.08333333  0.25000000       0.014
  -0.16666667  0.16666667  0.33333333       0.014
  -0.25000000  0.25000000  0.41666667       0.014
  -0.33333333  0.33333333  0.50000000       0.014
  -0.41666667  0.41666667  0.58333333       0.014
   0.50000000 -0.50000000 -0.33333333       0.014
   0.41666667 -0.41666667 -0.25000000       0.014
   0.33333333 -0.33333333 -0.16666667       0.014
   0.25000000 -0.25000000 -0.08333333       0.014
   0.16666667 -0.16666667  0.00000000       0.007
   0.00000000  0.00000000  0.33333333       0.003
  -0.08333333  0.08333333  0.41666667       0.014
  -0.16666667  0.16666667  0.50000000       0.014
  -0.25000000  0.25000000  0.58333333       0.014
  -0.33333333  0.33333333  0.66666667       0.014
   0.58333333 -0.58333333 -0.25000000       0.014
   0.50000000 -0.50000000 -0.16666667       0.014
   0.41666667 -0.41666667 -0.08333333       0.014
   0.33333333 -0.33333333  0.00000000       0.007
   0.00000000  0.00000000  0.50000000       0.003
  -0.08333333  0.08333333  0.58333333       0.014
  -0.16666667  0.16666667  0.66666667       0.014
  -0.25000000  0.25000000  0.75000000       0.014
   0.66666667 -0.66666667 -0.16666667       0.014
   0.58333333 -0.58333333 -0.08333333       0.014
   0.50000000 -0.50000000  0.00000000       0.007
   0.00000000  0.00000000  0.66666667       0.003
  -0.08333333  0.08333333  0.75000000       0.014
  -0.16666667  0.16666667  0.83333333       0.014
   0.75000000 -0.75000000 -0.08333333       0.014
   0.66666667 -0.66666667  0.00000000       0.007
   0.00000000  0.00000000  0.83333333       0.003
  -0.08333333  0.08333333  0.91666667       0.014
   0.83333333 -0.83333333  0.00000000       0.007
   0.00000000  0.00000000  1.00000000       0.002
   0.00000000  0.16666667  0.33333333       0.014
  -0.08333333  0.25000000  0.41666667       0.028
  -0.16666667  0.33333333  0.50000000       0.028
  -0.25000000  0.41666667  0.58333333       0.028
   0.66666667 -0.50000000 -0.33333333       0.014
   0.00000000  0.16666667  0.50000000       0.014
  -0.08333333  0.25000000  0.58333333       0.028
  -0.16666667  0.33333333  0.66666667       0.028
   0.75000000 -0.58333333 -0.25000000       0.028
   0.66666667 -0.50000000 -0.16666667       0.028
   0.58333333 -0.41666667 -0.08333333       0.028
   0.50000000 -0.33333333  0.00000000       0.014
  -0.00000000  0.16666667  0.66666667       0.014
  -0.08333333  0.25000000  0.75000000       0.028
   0.83333333 -0.66666667 -0.16666667       0.028
   0.75000000 -0.58333333 -0.08333333       0.028
   0.66666667 -0.50000000  0.00000000       0.014
   0.00000000  0.16666667  0.83333333       0.014
   0.91666667 -0.75000000 -0.08333333       0.028
   0.83333333 -0.66666667  0.00000000       0.014
   1.00000000 -0.83333333  0.00000000       0.007
   0.00000000  0.33333333  0.66666667       0.014
   0.91666667 -0.58333333 -0.25000000       0.028
   0.83333333 -0.50000000 -0.16666667       0.014
   1.00000000 -0.66666667 -0.16666667       0.014
   0.91666667 -0.58333333 -0.08333333       0.028
   0.83333333 -0.50000000  0.00000000       0.014
   1.00000000 -0.66666667  0.00000000       0.007
   1.00000000 -0.50000000  0.00000000       0.003
 
 k-points in reciprocal lattice and weights: Gamma centered Monkhorst-Pack           
   0.00000000  0.00000000  0.00000000       0.001
   0.08333333  0.00000000  0.00000000       0.005
   0.16666667  0.00000000  0.00000000       0.005
   0.25000000  0.00000000  0.00000000       0.005
   0.33333333  0.00000000  0.00000000       0.005
   0.41666667  0.00000000  0.00000000       0.005
   0.50000000  0.00000000  0.00000000       0.002
   0.08333333  0.08333333  0.00000000       0.003
   0.16666667  0.08333333  0.00000000       0.014
   0.25000000  0.08333333  0.00000000       0.014
   0.33333333  0.08333333  0.00000000       0.014
   0.41666667  0.08333333  0.00000000       0.014
   0.50000000  0.08333333  0.00000000       0.014
  -0.41666667  0.08333333  0.00000000       0.014
  -0.33333333  0.08333333  0.00000000       0.014
  -0.25000000  0.08333333  0.00000000       0.014
  -0.16666667  0.08333333  0.00000000       0.014
  -0.08333333  0.08333333  0.00000000       0.007
   0.16666667  0.16666667  0.00000000       0.003
   0.25000000  0.16666667  0.00000000       0.014
   0.33333333  0.16666667  0.00000000       0.014
   0.41666667  0.16666667  0.00000000       0.014
   0.50000000  0.16666667  0.00000000       0.014
  -0.41666667  0.16666667  0.00000000       0.014
  -0.33333333  0.16666667  0.00000000       0.014
  -0.25000000  0.16666667  0.00000000       0.014
  -0.16666667  0.16666667  0.00000000       0.007
   0.25000000  0.25000000  0.00000000       0.003
   0.33333333  0.25000000  0.00000000       0.014
   0.41666667  0.25000000  0.00000000       0.014
   0.50000000  0.25000000  0.00000000       0.014
  -0.41666667  0.25000000  0.00000000       0.014
  -0.33333333  0.25000000  0.00000000       0.014
  -0.25000000  0.25000000  0.00000000       0.007
   0.33333333  0.33333333  0.00000000       0.003
   0.41666667  0.33333333  0.00000000       0.014
   0.50000000  0.33333333  0.00000000       0.014
  -0.41666667  0.33333333  0.00000000       0.014
  -0.33333333  0.33333333  0.00000000       0.007
   0.41666667  0.41666667  0.00000000       0.003
   0.50000000  0.41666667  0.00000000       0.014
  -0.41666667  0.41666667  0.00000000       0.007
   0.50000000  0.50000000  0.00000000       0.002
   0.25000000  0.16666667  0.08333333       0.014
   0.33333333  0.16666667  0.08333333       0.028
   0.41666667  0.16666667  0.08333333       0.028
   0.50000000  0.16666667  0.08333333       0.028
  -0.41666667  0.16666667  0.08333333       0.014
   0.33333333  0.25000000  0.08333333       0.014
   0.41666667  0.25000000  0.08333333       0.028
   0.50000000  0.25000000  0.08333333       0.028
  -0.41666667  0.25000000  0.08333333       0.028
  -0.33333333  0.25000000  0.08333333       0.028
  -0.25000000  0.25000000  0.08333333       0.028
  -0.16666667  0.25000000  0.08333333       0.014
   0.41666667  0.33333333  0.08333333       0.014
   0.50000000  0.33333333  0.08333333       0.028
  -0.41666667  0.33333333  0.08333333       0.028
  -0.33333333  0.33333333  0.08333333       0.028
  -0.25000000  0.33333333  0.08333333       0.014
   0.50000000  0.41666667  0.08333333       0.014
  -0.41666667  0.41666667  0.08333333       0.028
  -0.33333333  0.41666667  0.08333333       0.014
  -0.41666667  0.50000000  0.08333333       0.007
   0.50000000  0.33333333  0.16666667       0.014
  -0.41666667  0.33333333  0.16666667       0.028
  -0.33333333  0.33333333  0.16666667       0.014
  -0.41666667  0.41666667  0.16666667       0.014
  -0.33333333  0.41666667  0.16666667       0.028
  -0.25000000  0.41666667  0.16666667       0.014
  -0.33333333  0.50000000  0.16666667       0.007
  -0.25000000  0.50000000  0.25000000       0.003
 
 position of ions in fractional coordinates (direct lattice) 
   0.00000000  0.00000000  0.00000000
   0.25000000  0.25000000  0.25000000
 
 position of ions in cartesian coordinates  (Angst):
   0.00000000  0.00000000  0.00000000
   1.18356805  1.18356805  1.18356805
 


--------------------------------------------------------------------------------------------------------


 k-point  1 :   0.0000 0.0000 0.0000  plane waves:     893
 k-point  2 :   0.0833 0.0000 0.0000  plane waves:     902
 k-point  3 :   0.1667 0.0000 0.0000  plane waves:     899
 k-point  4 :   0.2500 0.0000 0.0000  plane waves:     896
 k-point  5 :   0.3333 0.0000 0.0000  plane waves:     896
 k-point  6 :   0.4167 0.0000 0.0000  plane waves:     881
 k-point  7 :   0.5000 0.0000 0.0000  plane waves:     886
 k-point  8 :   0.0833 0.0833 0.0000  plane waves:     893
 k-point  9 :   0.1667 0.0833 0.0000  plane waves:     896
 k-point 10 :   0.2500 0.0833 0.0000  plane waves:     889
 k-point 11 :   0.3333 0.0833 0.0000  plane waves:     886
 k-point 12 :   0.4167 0.0833 0.0000  plane waves:     891
 k-point 13 :   0.5000 0.0833 0.0000  plane waves:     888
 k-point 14 :  -0.4167 0.0833 0.0000  plane waves:     880
 k-point 15 :  -0.3333 0.0833 0.0000  plane waves:     886
 k-point 16 :  -0.2500 0.0833 0.0000  plane waves:     882
 k-point 17 :  -0.1667 0.0833 0.0000  plane waves:     897
 k-point 18 :  -0.0833 0.0833 0.0000  plane waves:     903
 k-point 19 :   0.1667 0.1667 0.0000  plane waves:     889
 k-point 20 :   0.2500 0.1667 0.0000  plane waves:     884
 k-point 21 :   0.3333 0.1667 0.0000  plane waves:     875
 k-point 22 :   0.4167 0.1667 0.0000  plane waves:     883
 k-point 23 :   0.5000 0.1667 0.0000  plane waves:     886
 k-point 24 :  -0.4167 0.1667 0.0000  plane waves:     876
 k-point 25 :  -0.3333 0.1667 0.0000  plane waves:     889
 k-point 26 :  -0.2500 0.1667 0.0000  plane waves:     886
 k-point 27 :  -0.1667 0.1667 0.0000  plane waves:     887
 k-point 28 :   0.2500 0.2500 0.0000  plane waves:     881
 k-point 29 :   0.3333 0.2500 0.0000  plane waves:     877
 k-point 30 :   0.4167 0.2500 0.0000  plane waves:     882
 k-point 31 :   0.5000 0.2500 0.0000  plane waves:     888
 k-point 32 :  -0.4167 0.2500 0.0000  plane waves:     877
 k-point 33 :  -0.3333 0.2500 0.0000  plane waves:     885
 k-point 34 :  -0.2500 0.2500 0.0000  plane waves:     883
 k-point 35 :   0.3333 0.3333 0.0000  plane waves:     866
 k-point 36 :   0.4167 0.3333 0.0000  plane waves:     881
 k-point 37 :   0.5000 0.3333 0.0000  plane waves:     879
 k-point 38 :  -0.4167 0.3333 0.0000  plane waves:     884
 k-point 39 :  -0.3333 0.3333 0.0000  plane waves:     893
 k-point 40 :   0.4167 0.4167 0.0000  plane waves:     886
 k-point 41 :   0.5000 0.4167 0.0000  plane waves:     890
 k-point 42 :  -0.4167 0.4167 0.0000  plane waves:     892
 k-point 43 :   0.5000 0.5000 0.0000  plane waves:     894
 k-point 44 :   0.2500 0.1667 0.0833  plane waves:     889
 k-point 45 :   0.3333 0.1667 0.0833  plane waves:     882
 k-point 46 :   0.4167 0.1667 0.0833  plane waves:     886
 k-point 47 :   0.5000 0.1667 0.0833  plane waves:     885
 k-point 48 :  -0.4167 0.1667 0.0833  plane waves:     876
 k-point 49 :   0.3333 0.2500 0.0833  plane waves:     884
 k-point 50 :   0.4167 0.2500 0.0833  plane waves:     880
 k-point 51 :   0.5000 0.2500 0.0833  plane waves:     886
 k-point 52 :  -0.4167 0.2500 0.0833  plane waves:     882
 k-point 53 :  -0.3333 0.2500 0.0833  plane waves:     883
 k-point 54 :  -0.2500 0.2500 0.0833  plane waves:     884
 k-point 55 :  -0.1667 0.2500 0.0833  plane waves:     883
 k-point 56 :   0.4167 0.3333 0.0833  plane waves:     879
 k-point 57 :   0.5000 0.3333 0.0833  plane waves:     882
 k-point 58 :  -0.4167 0.3333 0.0833  plane waves:     884
 k-point 59 :  -0.3333 0.3333 0.0833  plane waves:     884
 k-point 60 :  -0.2500 0.3333 0.0833  plane waves:     885
 k-point 61 :   0.5000 0.4167 0.0833  plane waves:     888
 k-point 62 :  -0.4167 0.4167 0.0833  plane waves:     886
 k-point 63 :  -0.3333 0.4167 0.0833  plane waves:     894
 k-point 64 :  -0.4167 0.5000 0.0833  plane waves:     888
 k-point 65 :   0.5000 0.3333 0.1667  plane waves:     878
 k-point 66 :  -0.4167 0.3333 0.1667  plane waves:     885
 k-point 67 :  -0.3333 0.3333 0.1667  plane waves:     884
 k-point 68 :  -0.4167 0.4167 0.1667  plane waves:     886
 k-point 69 :  -0.3333 0.4167 0.1667  plane waves:     888
 k-point 70 :  -0.2500 0.4167 0.1667  plane waves:     890
 k-point 71 :  -0.3333 0.5000 0.1667  plane waves:     884
 k-point 72 :  -0.2500 0.5000 0.2500  plane waves:     892

 maximum and minimum number of plane-waves per node :       903      866

 maximum number of plane-waves:       903
 maximum index in each direction: 
   IXMAX=    7   IYMAX=    6   IZMAX=    6
   IXMIN=   -7   IYMIN=   -7   IZMIN=   -6

 WARNING: aliasing errors must be expected set NGX to  30 to avoid them
 WARNING: aliasing errors must be expected set NGY to  28 to avoid them
 WARNING: aliasing errors must be expected set NGZ to  26 to avoid them
 aliasing errors are usually negligible using standard VASP settings
 and one can safely disregard these warnings

 serial   3D FFT for wavefunctions
 parallel 3D FFT for charge:
    minimum data exchange during FFTs selected (reduces bandwidth)


 total amount of memory used by VASP on root node    38034. kBytes
========================================================================

   base      :      30000. kBytes
   nonl-proj :       4194. kBytes
   fftplans  :        595. kBytes
   grid      :       1120. kBytes
   one-center:          6. kBytes
   wavefun   :       2119. kBytes
 
     INWAV:  cpu time    0.00: real time    0.00
 Broyden mixing: mesh for mixing (old mesh)
   NGX = 13   NGY = 13   NGZ = 13
  (NGX  = 40   NGY  = 40   NGZ  = 40)
  gives a total of   2197 points

 initial charge density was supplied:
 charge density of overlapping atoms calculated
 number of electron       8.0000000 magnetization 
 keeping initial charge density in first step


--------------------------------------------------------------------------------------------------------


 Maximum index for augmentation-charges         2463 (set IRDMAX)


--------------------------------------------------------------------------------------------------------


 First call to EWALD:  gamma=   0.594
 Maximum number of real-space cells 3x 3x 3
 Maximum number of reciprocal cells 3x 3x 3

 FEWALD executed in parallel
    FEWALD:  cpu time    0.00: real time    0.00


----------------------------------------- Iteration    1(   1)  ---------------------------------------


    POTLOK:  cpu time    0.01: real time    0.01
    SETDIJ:  cpu time    0.00: real time    0.00
     EDDAV:  cpu time    0.15: real time    0.18
       DOS:  cpu time    0.00: real time    0.00
    --------------------------------------------
      LOOP:  cpu time    0.16: real time    0.20

 eigenvalue-minimisations  :  1168
 total energy-change (2. order) : 0.1136912E+02  (-0.4100250E+03)
 number of electron       8.0000000 magnetization 
 augmentation part        8.0000000 magnetization 

 Free energy of the ion-electron system (eV)
  ---------------------------------------------------
  alpha Z        PSCENC =         5.07591261
  Ewald energy   TEWEN  =      -262.15221390
  -Hartree energ DENC   =        -5.72987847
  -exchange      EXHF   =         0.00000000
  -V(xc)+E(xc)   XCENC  =       -16.79347866
  PAW double counting   =        65.95520812      -30.76852678
  entropy T*S    EENTRO =        -0.00093814
  eigenvalues    EBANDS =        49.64991773
  atomic energy  EATOM  =       206.13311910
  ---------------------------------------------------
  free energy    TOTEN  =        11.36912160 eV

  energy without entropy =       11.37005974  energy(sigma->0) =       11.36959067


--------------------------------------------------------------------------------------------------------




----------------------------------------- Iteration    1(   2)  ---------------------------------------


     EDDAV:  cpu time    0.22: real time    0.24
       DOS:  cpu time    0.00: real time    0.00
    --------------------------------------------
      LOOP:  cpu time    0.22: real time    0.25

 eigenvalue-minimisations  :  1776
 total energy-change (2. order) :-0.1966271E+02  (-0.1906149E+02)
 number of electron       8.0000000 magnetization 
 augmentation part        8.0000000 magnetization 

 Free energy of the ion-electron system (eV)
  ---------------------------------------------------
  alpha Z        PSCENC =         5.07591261
  Ewald energy   TEWEN  =      -262.15221390
  -Hartree energ DENC   =        -5.72987847
  -exchange      EXHF   =         0.00000000
  -V(xc)+E(xc)   XCENC  =       -16.79347866
  PAW double counting   =        65.95520812      -30.76852678
  entropy T*S    EENTRO =        -0.00009783
  eigenvalues    EBANDS =        29.98637205
  atomic energy  EATOM  =       206.13311910
  ---------------------------------------------------
  free energy    TOTEN  =        -8.29358377 eV

  energy without entropy =       -8.29348594  energy(sigma->0) =       -8.29353486


--------------------------------------------------------------------------------------------------------




----------------------------------------- Iteration    1(   3)  ---------------------------------------


     EDDAV:  cpu time    0.18: real time    0.24
       DOS:  cpu time    0.00: real time    0.00
    --------------------------------------------
      LOOP:  cpu time    0.18: real time    0.25

 eigenvalue-minimisations  :  1352
 total energy-change (2. order) :-0.2038733E+00  (-0.2038633E+00)
 number of electron       8.0000000 magnetization 
 augmentation part        8.0000000 magnetization 

 Free energy of the ion-electron system (eV)
  ---------------------------------------------------
  alpha Z        PSCENC =         5.07591261
  Ewald energy   TEWEN  =      -262.15221390
  -Hartree energ DENC   =        -5.72987847
  -exchange      EXHF   =         0.00000000
  -V(xc)+E(xc)   XCENC  =       -16.79347866
  PAW double counting   =        65.95520812      -30.76852678
  entropy T*S    EENTRO =        -0.00007089
  eigenvalues    EBANDS =        29.78247182
  atomic energy  EATOM  =       206.13311910
  ---------------------------------------------------
  free energy    TOTEN  =        -8.49745706 eV

  energy without entropy =       -8.49738617  energy(sigma->0) =       -8.49742161


--------------------------------------------------------------------------------------------------------




----------------------------------------- Iteration    1(   4)  ---------------------------------------


     EDDAV:  cpu time    0.25: real time    0.27
       DOS:  cpu time    0.00: real time    0.00
    --------------------------------------------
      LOOP:  cpu time    0.26: real time    0.28

 eigenvalue-minimisations  :  1984
 total energy-change (2. order) :-0.8594159E-03  (-0.8594146E-03)
 number of electron       8.0000000 magnetization 
 augmentation part        8.0000000 magnetization 

 Free energy of the ion-electron system (eV)
  ---------------------------------------------------
  alpha Z        PSCENC =         5.07591261
  Ewald energy   TEWEN  =      -262.15221390
  -Hartree energ DENC   =        -5.72987847
  -exchange      EXHF   =         0.00000000
  -V(xc)+E(xc)   XCENC  =       -16.79347866
  PAW double counting   =        65.95520812      -30.76852678
  entropy T*S    EENTRO =        -0.00007071
  eigenvalues    EBANDS =        29.78161222
  atomic energy  EATOM  =       206.13311910
  ---------------------------------------------------
  free energy    TOTEN  =        -8.49831648 eV

  energy without entropy =       -8.49824577  energy(sigma->0) =       -8.49828112


--------------------------------------------------------------------------------------------------------




----------------------------------------- Iteration    1(   5)  ---------------------------------------


     EDDAV:  cpu time    0.18: real time    0.22
       DOS:  cpu time    0.00: real time    0.00
    CHARGE:  cpu time    0.01: real time    0.01
    MIXING:  cpu time    0.00: real time    0.00
    --------------------------------------------
      LOOP:  cpu time    0.19: real time    0.23

 eigenvalue-minimisations  :  1432
 total energy-change (2. order) :-0.5153202E-06  (-0.5162850E-06)
 number of electron       8.0000001 magnetization 
 augmentation part       -0.5236682 magnetization 

 Broyden mixing:
  rms(total) = 0.41649E+00    rms(broyden)= 0.41649E+00
  rms(prec ) = 0.13185E+01
  weight for this iteration     100.00

 Free energy of the ion-electron system (eV)
  ---------------------------------------------------
  alpha Z        PSCENC =         5.07591261
  Ewald energy   TEWEN  =      -262.15221390
  -Hartree energ DENC   =        -5.72987847
  -exchange      EXHF   =         0.00000000
  -V(xc)+E(xc)   XCENC  =       -16.79347866
  PAW double counting   =        65.95520812      -30.76852678
  entropy T*S    EENTRO =        -0.00007071
  eigenvalues    EBANDS =        29.78161171
  atomic energy  EATOM  =       206.13311910
  ---------------------------------------------------
  free energy    TOTEN  =        -8.49831699 eV

  energy without entropy =       -8.49824628  energy(sigma->0) =       -8.49828164


--------------------------------------------------------------------------------------------------------




----------------------------------------- Iteration    1(   6)  ---------------------------------------


    POTLOK:  cpu time    0.00: real time    0.01
    SETDIJ:  cpu time    0.00: real time    0.00
     EDDAV:  cpu time    0.16: real time    0.19
       DOS:  cpu time    0.00: real time    0.00
    CHARGE:  cpu time    0.01: real time    0.01
    MIXING:  cpu time    0.00: real time    0.00
    --------------------------------------------
      LOOP:  cpu time    0.18: real time    0.22

 eigenvalue-minimisations  :  1208
 total energy-change (2. order) : 0.3914604E+00  (-0.3021559E-01)
 number of electron       8.0000001 magnetization 
 augmentation part       -0.5112915 magnetization 

 Broyden mixing:
  rms(total) = 0.22845E+00    rms(broyden)= 0.22845E+00
  rms(prec ) = 0.70919E+00
  weight for this iteration     100.00

 eigenvalues of (default mixing * dielectric matrix)
  average eigenvalue GAMMA=   2.1927
  2.1927

 Free energy of the ion-electron system (eV)
  ---------------------------------------------------
  alpha Z        PSCENC =         5.07591261
  Ewald energy   TEWEN  =      -262.15221390
  -Hartree energ DENC   =        -7.61828714
  -exchange      EXHF   =         0.00000000
  -V(xc)+E(xc)   XCENC  =       -16.45890308
  PAW double counting   =        78.08319186      -43.23466270
  entropy T*S    EENTRO =        -0.00053265
  eigenvalues    EBANDS =        32.06551932
  atomic energy  EATOM  =       206.13311910
  ---------------------------------------------------
  free energy    TOTEN  =        -8.10685657 eV

  energy without entropy =       -8.10632392  energy(sigma->0) =       -8.10659024


--------------------------------------------------------------------------------------------------------




----------------------------------------- Iteration    1(   7)  ---------------------------------------


    POTLOK:  cpu time    0.01: real time    0.01
    SETDIJ:  cpu time    0.00: real time    0.00
     EDDAV:  cpu time    0.18: real time    0.20
       DOS:  cpu time    0.00: real time    0.00
    CHARGE:  cpu time    0.01: real time    0.01
    MIXING:  cpu time    0.00: real time    0.00
    --------------------------------------------
      LOOP:  cpu time    0.20: real time    0.23

 eigenvalue-minimisations  :  1448
 total energy-change (2. order) : 0.1393872E+00  (-0.3694100E-01)
 number of electron       8.0000001 magnetization 
 augmentation part       -0.4986699 magnetization 

 Broyden mixing:
  rms(total) = 0.23656E-01    rms(broyden)= 0.23656E-01
  rms(prec ) = 0.65048E-01
  weight for this iteration     100.00

 eigenvalues of (default mixing * dielectric matrix)
  average eigenvalue GAMMA=   2.3421
  2.3421  2.3421

 Free energy of the ion-electron system (eV)
  ---------------------------------------------------
  alpha Z        PSCENC =         5.07591261
  Ewald energy   TEWEN  =      -262.15221390
  -Hartree energ DENC   =       -10.19662984
  -exchange      EXHF   =         0.00000000
  -V(xc)+E(xc)   XCENC  =       -15.99163446
  PAW double counting   =        94.64690209      -60.21968935
  entropy T*S    EENTRO =        -0.00051497
  eigenvalues    EBANDS =        34.73727936
  atomic energy  EATOM  =       206.13311910
  ---------------------------------------------------
  free energy    TOTEN  =        -7.96746936 eV

  energy without entropy =       -7.96695439  energy(sigma->0) =       -7.96721188


--------------------------------------------------------------------------------------------------------




----------------------------------------- Iteration    1(   8)  ---------------------------------------


    POTLOK:  cpu time    0.01: real time    0.01
    SETDIJ:  cpu time    0.00: real time    0.00
     EDDAV:  cpu time    0.18: real time    0.19
       DOS:  cpu time    0.00: real time    0.00
    CHARGE:  cpu time    0.01: real time    0.01
    MIXING:  cpu time    0.00: real time    0.00
    --------------------------------------------
      LOOP:  cpu time    0.20: real time    0.22

 eigenvalue-minimisations  :  1368
 total energy-change (2. order) :-0.9725264E-03  (-0.8365517E-03)
 number of electron       8.0000001 magnetization 
 augmentation part       -0.5004251 magnetization 

 Broyden mixing:
  rms(total) = 0.56154E-02    rms(broyden)= 0.56153E-02
  rms(prec ) = 0.20123E-01
  weight for this iteration     100.00

 eigenvalues of (default mixing * dielectric matrix)
  average eigenvalue GAMMA=   2.0123
  2.7533  1.4597  1.8240

 Free energy of the ion-electron system (eV)
  ---------------------------------------------------
  alpha Z        PSCENC =         5.07591261
  Ewald energy   TEWEN  =      -262.15221390
  -Hartree energ DENC   =       -10.11618729
  -exchange      EXHF   =         0.00000000
  -V(xc)+E(xc)   XCENC  =       -15.95838513
  PAW double counting   =        94.68251851      -60.24145340
  entropy T*S    EENTRO =        -0.00057439
  eigenvalues    EBANDS =        34.60882199
  atomic energy  EATOM  =       206.13311910
  ---------------------------------------------------
  free energy    TOTEN  =        -7.96844189 eV

  energy without entropy =       -7.96786750  energy(sigma->0) =       -7.96815469


--------------------------------------------------------------------------------------------------------




----------------------------------------- Iteration    1(   9)  ---------------------------------------


    POTLOK:  cpu time    0.01: real time    0.01
    SETDIJ:  cpu time    0.00: real time    0.00
     EDDAV:  cpu time    0.21: real time    0.22
       DOS:  cpu time    0.00: real time    0.00
    CHARGE:  cpu time    0.01: real time    0.01
    MIXING:  cpu time    0.00: real time    0.00
    --------------------------------------------
      LOOP:  cpu time    0.23: real time    0.24

 eigenvalue-minimisations  :  1608
 total energy-change (2. order) : 0.5623757E-04  (-0.3659807E-04)
 number of electron       8.0000001 magnetization 
 augmentation part       -0.5001373 magnetization 

 Broyden mixing:
  rms(total) = 0.16733E-02    rms(broyden)= 0.16733E-02
  rms(prec ) = 0.37510E-02
  weight for this iteration     100.00

 eigenvalues of (default mixing * dielectric matrix)
  average eigenvalue GAMMA=   2.0866
  1.0024  2.7815  2.5028  2.0595

 Free energy of the ion-electron system (eV)
  ---------------------------------------------------
  alpha Z        PSCENC =         5.07591261
  Ewald energy   TEWEN  =      -262.15221390
  -Hartree energ DENC   =       -10.20683625
  -exchange      EXHF   =         0.00000000
  -V(xc)+E(xc)   XCENC  =       -15.94214058
  PAW double counting   =        95.18890898      -60.76079263
  entropy T*S    EENTRO =        -0.00055282
  eigenvalues    EBANDS =        34.69620983
  atomic energy  EATOM  =       206.13311910
  ---------------------------------------------------
  free energy    TOTEN  =        -7.96838565 eV

  energy without entropy =       -7.96783283  energy(sigma->0) =       -7.96810924


--------------------------------------------------------------------------------------------------------




----------------------------------------- Iteration    1(  10)  ---------------------------------------


    POTLOK:  cpu time    0.01: real time    0.01
    SETDIJ:  cpu time    0.00: real time    0.00
     EDDAV:  cpu time    0.20: real time    0.24
       DOS:  cpu time    0.00: real time    0.00
    CHARGE:  cpu time    0.01: real time    0.01
    MIXING:  cpu time    0.00: real time    0.00
    --------------------------------------------
      LOOP:  cpu time    0.22: real time    0.27

 eigenvalue-minimisations  :  1456
 total energy-change (2. order) :-0.5627363E-05  (-0.1730730E-05)
 number of electron       8.0000001 magnetization 
 augmentation part       -0.5001361 magnetization 

 Broyden mixing:
  rms(total) = 0.23917E-03    rms(broyden)= 0.23917E-03
  rms(prec ) = 0.72550E-03
  weight for this iteration     100.00

 eigenvalues of (default mixing * dielectric matrix)
  average eigenvalue GAMMA=   1.9126
  2.9556  2.5833  2.0081  1.0265  0.9894

 Free energy of the ion-electron system (eV)
  ---------------------------------------------------
  alpha Z        PSCENC =         5.07591261
  Ewald energy   TEWEN  =      -262.15221390
  -Hartree energ DENC   =       -10.20815959
  -exchange      EXHF   =         0.00000000
  -V(xc)+E(xc)   XCENC  =       -15.94302654
  PAW double counting   =        95.05987568      -60.62987179
  entropy T*S    EENTRO =        -0.00055486
  eigenvalues    EBANDS =        34.69652801
  atomic energy  EATOM  =       206.13311910
  ---------------------------------------------------
  free energy    TOTEN  =        -7.96839128 eV

  energy without entropy =       -7.96783642  energy(sigma->0) =       -7.96811385


--------------------------------------------------------------------------------------------------------




----------------------------------------- Iteration    1(  11)  ---------------------------------------


    POTLOK:  cpu time    0.01: real time    0.01
    SETDIJ:  cpu time    0.00: real time    0.00
     EDDAV:  cpu time    0.23: real time    0.26
       DOS:  cpu time    0.00: real time    0.00
    CHARGE:  cpu time    0.02: real time    0.01
    MIXING:  cpu time    0.00: real time    0.00
    --------------------------------------------
      LOOP:  cpu time    0.25: real time    0.29

 eigenvalue-minimisations  :  1696
 total energy-change (2. order) : 0.6100323E-06  (-0.6759532E-07)
 number of electron       8.0000001 magnetization 
 augmentation part       -0.5001538 magnetization 

 Broyden mixing:
  rms(total) = 0.50381E-04    rms(broyden)= 0.50380E-04
  rms(prec ) = 0.74117E-04
  weight for this iteration     100.00

 eigenvalues of (default mixing * dielectric matrix)
  average eigenvalue GAMMA=   2.0223
  2.8910  2.6151  2.6151  2.0190  0.9830  1.0109

 Free energy of the ion-electron system (eV)
  ---------------------------------------------------
  alpha Z        PSCENC =         5.07591261
  Ewald energy   TEWEN  =      -262.15221390
  -Hartree energ DENC   =       -10.20590809
  -exchange      EXHF   =         0.00000000
  -V(xc)+E(xc)   XCENC  =       -15.94321768
  PAW double counting   =        95.04740118      -60.61696811
  entropy T*S    EENTRO =        -0.00055590
  eigenvalues    EBANDS =        34.69404011
  atomic energy  EATOM  =       206.13311910
  ---------------------------------------------------
  free energy    TOTEN  =        -7.96839067 eV

  energy without entropy =       -7.96783477  energy(sigma->0) =       -7.96811272


--------------------------------------------------------------------------------------------------------




----------------------------------------- Iteration    1(  12)  ---------------------------------------


    POTLOK:  cpu time    0.01: real time    0.01
    SETDIJ:  cpu time    0.00: real time    0.00
     EDDAV:  cpu time    0.20: real time    0.21
       DOS:  cpu time    0.00: real time    0.00
    CHARGE:  cpu time    0.01: real time    0.01
    MIXING:  cpu time    0.00: real time    0.00
    --------------------------------------------
      LOOP:  cpu time    0.22: real time    0.24

 eigenvalue-minimisations  :  1520
 total energy-change (2. order) :-0.9505948E-07  (-0.1615380E-08)
 number of electron       8.0000001 magnetization 
 augmentation part       -0.5001525 magnetization 

 Broyden mixing:
  rms(total) = 0.59660E-05    rms(broyden)= 0.59657E-05
  rms(prec ) = 0.17132E-04
  weight for this iteration     100.00

 eigenvalues of (default mixing * dielectric matrix)
  average eigenvalue GAMMA=   1.9032
  3.0393  2.6484  2.4763  2.0220  0.9754  1.0805  1.0805

 Free energy of the ion-electron system (eV)
  ---------------------------------------------------
  alpha Z        PSCENC =         5.07591261
  Ewald energy   TEWEN  =      -262.15221390
  -Hartree energ DENC   =       -10.20597534
  -exchange      EXHF   =         0.00000000
  -V(xc)+E(xc)   XCENC  =       -15.94321192
  PAW double counting   =        95.05546848      -60.62509652
  entropy T*S    EENTRO =        -0.00055588
  eigenvalues    EBANDS =        34.69416261
  atomic energy  EATOM  =       206.13311910
  ---------------------------------------------------
  free energy    TOTEN  =        -7.96839076 eV

  energy without entropy =       -7.96783489  energy(sigma->0) =       -7.96811282


--------------------------------------------------------------------------------------------------------




----------------------------------------- Iteration    1(  13)  ---------------------------------------


    POTLOK:  cpu time    0.01: real time    0.01
    SETDIJ:  cpu time    0.00: real time    0.00
     EDDAV:  cpu time    0.22: real time    0.25
       DOS:  cpu time    0.00: real time    0.00
    CHARGE:  cpu time    0.01: real time    0.01
    MIXING:  cpu time    0.00: real time    0.00
    --------------------------------------------
      LOOP:  cpu time    0.24: real time    0.27

 eigenvalue-minimisations  :  1720
 total energy-change (2. order) : 0.4570950E-08  (-0.4656384E-10)
 number of electron       8.0000001 magnetization 
 augmentation part       -0.5001522 magnetization 

 Broyden mixing:
  rms(total) = 0.20324E-05    rms(broyden)= 0.20324E-05
  rms(prec ) = 0.41987E-05
  weight for this iteration     100.00

 eigenvalues of (default mixing * dielectric matrix)
  average eigenvalue GAMMA=   1.9896
  3.0566  2.0152  2.7838  2.5357  2.5357  1.0038  1.0038  0.9818

 Free energy of the ion-electron system (eV)
  ---------------------------------------------------
  alpha Z        PSCENC =         5.07591261
  Ewald energy   TEWEN  =      -262.15221390
  -Hartree energ DENC   =       -10.20601558
  -exchange      EXHF   =         0.00000000
  -V(xc)+E(xc)   XCENC  =       -15.94321334
  PAW double counting   =        95.05512581      -60.62474959
  entropy T*S    EENTRO =        -0.00055588
  eigenvalues    EBANDS =        34.69420001
  atomic energy  EATOM  =       206.13311910
  ---------------------------------------------------
  free energy    TOTEN  =        -7.96839076 eV

  energy without entropy =       -7.96783488  energy(sigma->0) =       -7.96811282


--------------------------------------------------------------------------------------------------------




----------------------------------------- Iteration    1(  14)  ---------------------------------------


    POTLOK:  cpu time    0.01: real time    0.01
    SETDIJ:  cpu time    0.00: real time    0.00
     EDDAV:  cpu time    0.13: real time    0.14
       DOS:  cpu time    0.00: real time    0.00
    CHARGE:  cpu time    0.01: real time    0.01
    MIXING:  cpu time    0.00: real time    0.00
    --------------------------------------------
      LOOP:  cpu time    0.15: real time    0.17

 eigenvalue-minimisations  :   904
 total energy-change (2. order) : 0.1596874E-08  (-0.1884988E-11)
 number of electron       8.0000001 magnetization 
 augmentation part       -0.5001522 magnetization 

 Broyden mixing:
  rms(total) = 0.13614E-06    rms(broyden)= 0.13576E-06
  rms(prec ) = 0.39954E-06
  weight for this iteration     100.00

 eigenvalues of (default mixing * dielectric matrix)
  average eigenvalue GAMMA=   1.8741
  3.0308  2.0134  2.7533  2.5888  2.5285  1.0099  1.0099  0.9889  0.9435

 Free energy of the ion-electron system (eV)
  ---------------------------------------------------
  alpha Z        PSCENC =         5.07591261
  Ewald energy   TEWEN  =      -262.15221390
  -Hartree energ DENC   =       -10.20602554
  -exchange      EXHF   =         0.00000000
  -V(xc)+E(xc)   XCENC  =       -15.94321341
  PAW double counting   =        95.05491411      -60.62453784
  entropy T*S    EENTRO =        -0.00055588
  eigenvalues    EBANDS =        34.69420999
  atomic energy  EATOM  =       206.13311910
  ---------------------------------------------------
  free energy    TOTEN  =        -7.96839076 eV

  energy without entropy =       -7.96783488  energy(sigma->0) =       -7.96811282


--------------------------------------------------------------------------------------------------------




----------------------------------------- Iteration    1(  15)  ---------------------------------------


    POTLOK:  cpu time    0.01: real time    0.01
    SETDIJ:  cpu time    0.00: real time    0.00
     EDDAV:  cpu time    0.11: real time    0.12
       DOS:  cpu time    0.00: real time    0.00
    CHARGE:  cpu time    0.01: real time    0.01
    MIXING:  cpu time    0.00: real time    0.00
    --------------------------------------------
      LOOP:  cpu time    0.14: real time    0.15

 eigenvalue-minimisations  :   744
 total energy-change (2. order) :-0.1593037E-09  (-0.9077032E-13)
 number of electron       8.0000001 magnetization 
 augmentation part       -0.5001522 magnetization 

 Broyden mixing:
  rms(total) = 0.43398E-07    rms(broyden)= 0.42253E-07
  rms(prec ) = 0.70057E-07
  weight for this iteration     100.00

 eigenvalues of (default mixing * dielectric matrix)
  average eigenvalue GAMMA=   1.9099
  3.0477  2.6835  2.6835  2.4861  2.0112  2.1980  1.0254  0.9890  0.9890  0.9852

 Free energy of the ion-electron system (eV)
  ---------------------------------------------------
  alpha Z        PSCENC =         5.07591261
  Ewald energy   TEWEN  =      -262.15221390
  -Hartree energ DENC   =       -10.20602445
  -exchange      EXHF   =         0.00000000
  -V(xc)+E(xc)   XCENC  =       -15.94321345
  PAW double counting   =        95.05489174      -60.62451522
  entropy T*S    EENTRO =        -0.00055588
  eigenvalues    EBANDS =        34.69420870
  atomic energy  EATOM  =       206.13311910
  ---------------------------------------------------
  free energy    TOTEN  =        -7.96839076 eV

  energy without entropy =       -7.96783488  energy(sigma->0) =       -7.96811282


--------------------------------------------------------------------------------------------------------




----------------------------------------- Iteration    1(  16)  ---------------------------------------


    POTLOK:  cpu time    0.01: real time    0.01
    SETDIJ:  cpu time    0.00: real time    0.00
     EDDAV:  cpu time    0.11: real time    0.11
       DOS:  cpu time    0.00: real time    0.00
    CHARGE:  cpu time    0.01: real time    0.01
    MIXING:  cpu time    0.00: real time    0.00
    --------------------------------------------
      LOOP:  cpu time    0.13: real time    0.14

 eigenvalue-minimisations  :   688
 total energy-change (2. order) :-0.3514913E-09  ( 0.1136967E-13)
 number of electron       8.0000001 magnetization 
 augmentation part       -0.5001522 magnetization 

 Broyden mixing:
  rms(total) = 0.17323E-07    rms(broyden)= 0.14223E-07
  rms(prec ) = 0.49102E-07
  weight for this iteration     100.00
  WARNING: grid for Broyden might be to small

 eigenvalues of (default mixing * dielectric matrix)
  average eigenvalue GAMMA=   1.8780
  3.0315  2.9207  2.0127  2.6503  2.5374  2.5374  1.0358  0.9998  0.9998  0.9662
  0.9662

 Free energy of the ion-electron system (eV)
  ---------------------------------------------------
  alpha Z        PSCENC =         5.07591261
  Ewald energy   TEWEN  =      -262.15221390
  -Hartree energ DENC   =       -10.20602460
  -exchange      EXHF   =         0.00000000
  -V(xc)+E(xc)   XCENC  =       -15.94321340
  PAW double counting   =        95.05490021      -60.62452377
  entropy T*S    EENTRO =        -0.00055588
  eigenvalues    EBANDS =        34.69420886
  atomic energy  EATOM  =       206.13311910
  ---------------------------------------------------
  free energy    TOTEN  =        -7.96839076 eV

  energy without entropy =       -7.96783488  energy(sigma->0) =       -7.96811282


--------------------------------------------------------------------------------------------------------




----------------------------------------- Iteration    1(  17)  ---------------------------------------


    POTLOK:  cpu time    0.01: real time    0.01
    SETDIJ:  cpu time    0.00: real time    0.00
     EDDAV:  cpu time    0.11: real time    0.12
       DOS:  cpu time    0.00: real time    0.00
    CHARGE:  cpu time    0.01: real time    0.01
    MIXING:  cpu time    0.00: real time    0.00
    --------------------------------------------
      LOOP:  cpu time    0.12: real time    0.15

 eigenvalue-minimisations  :   680
 total energy-change (2. order) : 0.1274856E-08  (-0.1902640E-13)
 number of electron       8.0000001 magnetization 
 augmentation part       -0.5001522 magnetization 

 Broyden mixing:
  rms(total) = 0.10159E-07    rms(broyden)= 0.23353E-08
  rms(prec ) = 0.83337E-08
  weight for this iteration     100.00
  WARNING: grid for Broyden might be to small

 eigenvalues of (default mixing * dielectric matrix)
  average eigenvalue GAMMA=   1.8912
  3.0336  2.0137  2.6553  2.6553  2.6292  2.4905  2.2491  1.0279  1.0064  0.9915
  0.9707  0.9707

 Free energy of the ion-electron system (eV)
  ---------------------------------------------------
  alpha Z        PSCENC =         5.07591261
  Ewald energy   TEWEN  =      -262.15221390
  -Hartree energ DENC   =       -10.20602437
  -exchange      EXHF   =         0.00000000
  -V(xc)+E(xc)   XCENC  =       -15.94321343
  PAW double counting   =        95.05490043      -60.62452398
  entropy T*S    EENTRO =        -0.00055588
  eigenvalues    EBANDS =        34.69420865
  atomic energy  EATOM  =       206.13311910
  ---------------------------------------------------
  free energy    TOTEN  =        -7.96839076 eV

  energy without entropy =       -7.96783488  energy(sigma->0) =       -7.96811282


--------------------------------------------------------------------------------------------------------




----------------------------------------- Iteration    1(  18)  ---------------------------------------


    POTLOK:  cpu time    0.00: real time    0.01
    SETDIJ:  cpu time    0.00: real time    0.00
     EDDAV:  cpu time    0.10: real time    0.11
       DOS:  cpu time    0.00: real time    0.00
    CHARGE:  cpu time    0.01: real time    0.01
    MIXING:  cpu time    0.00: real time    0.00
    --------------------------------------------
      LOOP:  cpu time    0.12: real time    0.13

 eigenvalue-minimisations  :   640
 total energy-change (2. order) : 0.3602736E-09  (-0.3325165E-13)
 number of electron       8.0000001 magnetization 
 augmentation part       -0.5001522 magnetization 

 Broyden mixing:
  rms(total) = 0.99583E-08    rms(broyden)= 0.11920E-08
  rms(prec ) = 0.48123E-08
  weight for this iteration     100.00
  WARNING: grid for Broyden might be to small

 eigenvalues of (default mixing * dielectric matrix)
  average eigenvalue GAMMA=   1.8253
  3.0368  2.0131  2.7346  2.7346  2.6359  2.4939  2.3538  1.0124  1.0124  0.9882
  0.9864  0.9864  0.7397

 Free energy of the ion-electron system (eV)
  ---------------------------------------------------
  alpha Z        PSCENC =         5.07591261
  Ewald energy   TEWEN  =      -262.15221390
  -Hartree energ DENC   =       -10.20602441
  -exchange      EXHF   =         0.00000000
  -V(xc)+E(xc)   XCENC  =       -15.94321342
  PAW double counting   =        95.05490050      -60.62452405
  entropy T*S    EENTRO =        -0.00055588
  eigenvalues    EBANDS =        34.69420869
  atomic energy  EATOM  =       206.13311910
  ---------------------------------------------------
  free energy    TOTEN  =        -7.96839075 eV

  energy without entropy =       -7.96783488  energy(sigma->0) =       -7.96811282


--------------------------------------------------------------------------------------------------------




----------------------------------------- Iteration    1(  19)  ---------------------------------------


    POTLOK:  cpu time    0.01: real time    0.01
    SETDIJ:  cpu time    0.00: real time    0.00
     EDDAV:  cpu time    0.10: real time    0.11
       DOS:  cpu time    0.00: real time    0.00
    CHARGE:  cpu time    0.01: real time    0.01
    MIXING:  cpu time    0.00: real time    0.00
    --------------------------------------------
      LOOP:  cpu time    0.12: real time    0.14

 eigenvalue-minimisations  :   656
 total energy-change (2. order) :-0.8853362E-09  (-0.5612654E-13)
 number of electron       8.0000001 magnetization 
 augmentation part       -0.5001522 magnetization 

 Broyden mixing:
  rms(total) = 0.98881E-08    rms(broyden)= 0.16415E-09
  rms(prec ) = 0.35361E-09
  weight for this iteration     100.00
  WARNING: grid for Broyden might be to small

 eigenvalues of (default mixing * dielectric matrix)
  average eigenvalue GAMMA=   1.8503
  3.1640  3.0156  2.0127  2.6465  2.6465  2.5257  2.5257  1.5762  0.9851  0.9874
  0.9874  1.0256  1.0156  0.7896

 Free energy of the ion-electron system (eV)
  ---------------------------------------------------
  alpha Z        PSCENC =         5.07591261
  Ewald energy   TEWEN  =      -262.15221390
  -Hartree energ DENC   =       -10.20602439
  -exchange      EXHF   =         0.00000000
  -V(xc)+E(xc)   XCENC  =       -15.94321342
  PAW double counting   =        95.05490045      -60.62452400
  entropy T*S    EENTRO =        -0.00055588
  eigenvalues    EBANDS =        34.69420868
  atomic energy  EATOM  =       206.13311910
  ---------------------------------------------------
  free energy    TOTEN  =        -7.96839076 eV

  energy without entropy =       -7.96783488  energy(sigma->0) =       -7.96811282


--------------------------------------------------------------------------------------------------------




----------------------------------------- Iteration    1(  20)  ---------------------------------------


    POTLOK:  cpu time    0.01: real time    0.01
    SETDIJ:  cpu time    0.00: real time    0.00
     EDDAV:  cpu time    0.10: real time    0.11
       DOS:  cpu time    0.00: real time    0.00
    CHARGE:  cpu time    0.01: real time    0.01
    MIXING:  cpu time    0.00: real time    0.00
    --------------------------------------------
      LOOP:  cpu time    0.12: real time    0.14

 eigenvalue-minimisations  :   648
 total energy-change (2. order) : 0.1036824E-09  (-0.3884094E-13)
 number of electron       8.0000001 magnetization 
 augmentation part       -0.5001522 magnetization 

 Broyden mixing:
  rms(total) = 0.98906E-08    rms(broyden)= 0.27812E-09
  rms(prec ) = 0.11507E-08
  weight for this iteration     100.00
  WARNING: grid for Broyden might be to small

 eigenvalues of (default mixing * dielectric matrix)
  average eigenvalue GAMMA=   1.8192
  3.0749  3.0447  2.6658  2.6658  2.6278  2.4940  2.0131  2.0182  1.0298  0.9932
  0.9932  0.9732  0.9732  0.9163  0.8044

 Free energy of the ion-electron system (eV)
  ---------------------------------------------------
  alpha Z        PSCENC =         5.07591261
  Ewald energy   TEWEN  =      -262.15221390
  -Hartree energ DENC   =       -10.20602440
  -exchange      EXHF   =         0.00000000
  -V(xc)+E(xc)   XCENC  =       -15.94321342
  PAW double counting   =        95.05490046      -60.62452401
  entropy T*S    EENTRO =        -0.00055588
  eigenvalues    EBANDS =        34.69420868
  atomic energy  EATOM  =       206.13311910
  ---------------------------------------------------
  free energy    TOTEN  =        -7.96839076 eV

  energy without entropy =       -7.96783488  energy(sigma->0) =       -7.96811282


--------------------------------------------------------------------------------------------------------




----------------------------------------- Iteration    1(  21)  ---------------------------------------


    POTLOK:  cpu time    0.01: real time    0.01
    SETDIJ:  cpu time    0.00: real time    0.00
     EDDAV:  cpu time    0.10: real time    0.11
       DOS:  cpu time    0.00: real time    0.00
    CHARGE:  cpu time    0.01: real time    0.01
    MIXING:  cpu time    0.00: real time    0.00
    --------------------------------------------
      LOOP:  cpu time    0.12: real time    0.14

 eigenvalue-minimisations  :   656
 total energy-change (2. order) :-0.5294964E-09  ( 0.1201949E-13)
 number of electron       8.0000001 magnetization 
 augmentation part       -0.5001522 magnetization 

 Broyden mixing:
  rms(total) = 0.98868E-08    rms(broyden)= 0.37105E-10
  rms(prec ) = 0.90316E-10
  weight for this iteration     100.00
  WARNING: grid for Broyden might be to small

 eigenvalues of (default mixing * dielectric matrix)
  average eigenvalue GAMMA=   1.8408
  3.3455  3.0075  2.0127  2.8248  2.6710  2.5917  2.5917  2.4930  1.0236  1.0236
  0.9859  0.9921  0.9921  1.0484  1.0484  0.8002

 Free energy of the ion-electron system (eV)
  ---------------------------------------------------
  alpha Z        PSCENC =         5.07591261
  Ewald energy   TEWEN  =      -262.15221390
  -Hartree energ DENC   =       -10.20602439
  -exchange      EXHF   =         0.00000000
  -V(xc)+E(xc)   XCENC  =       -15.94321342
  PAW double counting   =        95.05490045      -60.62452401
  entropy T*S    EENTRO =        -0.00055588
  eigenvalues    EBANDS =        34.69420868
  atomic energy  EATOM  =       206.13311910
  ---------------------------------------------------
  free energy    TOTEN  =        -7.96839076 eV

  energy without entropy =       -7.96783488  energy(sigma->0) =       -7.96811282


--------------------------------------------------------------------------------------------------------




----------------------------------------- Iteration    1(  22)  ---------------------------------------


    POTLOK:  cpu time    0.01: real time    0.01
    SETDIJ:  cpu time    0.00: real time    0.00
     EDDAV:  cpu time    0.10: real time    0.11
       DOS:  cpu time    0.00: real time    0.00
    --------------------------------------------
      LOOP:  cpu time    0.11: real time    0.12

 eigenvalue-minimisations  :   640
 total energy-change (2. order) :-0.3311129E-10  (-0.4563914E-13)
 number of electron       8.0000001 magnetization 
 augmentation part       -0.5001522 magnetization 

 Free energy of the ion-electron system (eV)
  ---------------------------------------------------
  alpha Z        PSCENC =         5.07591261
  Ewald energy   TEWEN  =      -262.15221390
  -Hartree energ DENC   =       -10.20602439
  -exchange      EXHF   =         0.00000000
  -V(xc)+E(xc)   XCENC  =       -15.94321342
  PAW double counting   =        95.05490046      -60.62452401
  entropy T*S    EENTRO =        -0.00055588
  eigenvalues    EBANDS =        34.69420868
  atomic energy  EATOM  =       206.13311910
  ---------------------------------------------------
  free energy    TOTEN  =        -7.96839076 eV

  energy without entropy =       -7.96783488  energy(sigma->0) =       -7.96811282


--------------------------------------------------------------------------------------------------------




 average (electrostatic) potential at core
  the test charge radii are     0.9892
  (the norm of the test charge is              1.0000)
       1 -78.1038       2 -78.1038
 
 
 
 E-fermi :  10.5614     XC(G=0): -11.1166     alpha+bet :-18.0826


 k-point     1 :       0.0000    0.0000    0.0000
  band No.  band energies     occupation 
      1      -4.4836      2.00000
      2      10.8467      0.00002
      3      10.8467      0.00002
      4      10.8467      0.00002
      5      13.4692      0.00000
      6      13.4692      0.00000
      7      13.4692      0.00000
      8      18.6136      0.00000

 k-point     2 :       0.0833    0.0000    0.0000
  band No.  band energies     occupation 
      1      -4.3562      2.00000
      2       9.7952      2.00000
      3      10.6274      0.13301
      4      10.6274      0.13301
      5      13.7939      0.00000
      6      13.7939      0.00000
      7      13.8717      0.00000
      8      18.2400      0.00000

 k-point     3 :       0.1667    0.0000    0.0000
  band No.  band energies     occupation 
      1      -3.9762      2.00000
      2       7.8590      2.00000
      3      10.2018      2.00000
      4      10.2018      2.00000
      5      14.1325      0.00000
      6      14.3724      0.00000
      7      14.3724      0.00000
      8      17.7557      0.00000

 k-point     4 :       0.2500    0.0000    0.0000
  band No.  band energies     occupation 
      1      -3.3520      2.00000
      2       5.8213      2.00000
      3       9.8096      2.00000
      4       9.8096      2.00000
      5      14.0842      0.00000
      6      14.4944      0.00000
      7      14.4944      0.00000
      8      18.1171      0.00000

 k-point     5 :       0.3333    0.0000    0.0000
  band No.  band energies     occupation 
      1      -2.5063      2.00000
      2       3.9024      2.00000
[...]
      8      20.5053      0.00000

 k-point    37 :       0.5000    0.3333    0.0000
  band No.  band energies     occupation 
      1      -0.0998      2.00000
      2       3.1563      2.00000
      3       5.3498      2.00000
      4       7.1929      2.00000
      5      10.9258      0.00000
      6      13.2269      0.00000
      7      19.4730      0.00000
      8      20.5934      0.00000

 k-point    38 :      -0.4167    0.3333    0.0000
  band No.  band energies     occupation 
      1       0.7496      2.00000
      2       2.3189      2.00000
      3       4.4309      2.00000
      4       7.4211      2.00000
      5      11.1724      0.00000
      6      15.1065      0.00000
      7      18.9885      0.00000
      8      20.4469      0.00000

 k-point    39 :      -0.3333    0.3333    0.0000
  band No.  band energies     occupation 
      1       0.3666      2.00000
      2       2.6954      2.00000
      3       4.1179      2.00000
      4       7.8430      2.00000
      5      11.6630      0.00000
      6      16.9010      0.00000
      7      18.6511      0.00000
      8      18.6656      0.00000

 k-point    40 :       0.4167    0.4167    0.0000
  band No.  band energies     occupation 
      1      -0.3539      2.00000
      2       3.2872      2.00000
      3       6.9215      2.00000
      4       6.9215      2.00000
      5      10.4058      1.99604
      6      10.8243      0.00005
      7      21.8089      0.00000
      8      21.8089      0.00000

 k-point    41 :       0.5000    0.4167    0.0000
  band No.  band energies     occupation 
      1       0.5349      2.00000
      2       2.3362      2.00000
      3       6.1481      2.00000
      4       6.8805      2.00000
      5      10.5324      1.52219
      6      11.3393      0.00000
      7      21.7302      0.00000
      8      22.3095      0.00000

 k-point    42 :      -0.4167    0.4167    0.0000
  band No.  band energies     occupation 
      1       1.3552      2.00000
      2       1.7000      2.00000
      3       4.9757      2.00000
      4       7.0498      2.00000
      5      10.7298      0.00237
      6      13.0557      0.00000
      7      21.0725      0.00000
      8      21.5215      0.00000

 k-point    43 :       0.5000    0.5000    0.0000
  band No.  band energies     occupation 
      1       1.3649      2.00000
      2       1.3649      2.00000
      3       6.7749      2.00000
      4       6.7749      2.00000
      5      10.4100      1.99531
      6      10.4100      1.99531
      7      23.1700      0.00000
      8      23.1700      0.00000

 k-point    44 :       0.2500    0.1667    0.0833
  band No.  band energies     occupation 
      1      -3.6392      2.00000
      2       7.7547      2.00000
      3       8.3512      2.00000
      4      10.0122      2.00000
      5      13.1806      0.00000
      6      15.3656      0.00000
      7      15.7207      0.00000
      8      15.7899      0.00000

 k-point    45 :       0.3333    0.1667    0.0833
  band No.  band energies     occupation 
      1      -3.0178      2.00000
      2       6.0095      2.00000
      3       7.7684      2.00000
      4       9.5933      2.00000
      5      13.5277      0.00000
      6      15.0121      0.00000
      7      15.8125      0.00000
      8      16.2817      0.00000

 k-point    46 :       0.4167    0.1667    0.0833
  band No.  band energies     occupation 
      1      -2.1753      2.00000
      2       4.1515      2.00000
      3       7.5401      2.00000
      4       9.0727      2.00000
      5      13.4806      0.00000
      6      14.6629      0.00000
      7      16.0842      0.00000
      8      17.0359      0.00000

 k-point    47 :       0.5000    0.1667    0.0833
  band No.  band energies     occupation 
      1      -1.1915      2.00000
      2       2.5268      2.00000
      3       7.4740      2.00000
      4       8.6530      2.00000
      5      13.3941      0.00000
      6      14.2394      0.00000
      7      16.0566      0.00000
      8      18.6848      0.00000

 k-point    48 :      -0.4167    0.1667    0.0833
  band No.  band energies     occupation 
      1      -0.5495      2.00000
      2       1.6672      2.00000
      3       7.4760      2.00000
      4       8.4836      2.00000
      5      13.3915      0.00000
      6      14.0431      0.00000
      7      16.0330      0.00000
      8      20.4018      0.00000

 k-point    49 :       0.3333    0.2500    0.0833
  band No.  band energies     occupation 
      1      -2.8054      2.00000
      2       6.4892      2.00000
      3       7.3777      2.00000
      4       8.5961      2.00000
      5      12.3769      0.00000
      6      13.7470      0.00000
      7      16.8428      0.00000
      8      17.7589      0.00000

 k-point    50 :       0.4167    0.2500    0.0833
  band No.  band energies     occupation 
      1      -2.0361      2.00000
      2       4.9468      2.00000
      3       6.7819      2.00000
      4       8.0723      2.00000
      5      12.6406      0.00000
      6      14.2031      0.00000
      7      16.4845      0.00000
      8      18.2454      0.00000

 k-point    51 :       0.5000    0.2500    0.0833
  band No.  band energies     occupation 
      1      -1.0851      2.00000
      2       3.3169      2.00000
      3       6.4470      2.00000
      4       7.6839      2.00000
      5      12.6451      0.00000
      6      15.2351      0.00000
      7      16.3716      0.00000
      8      18.3965      0.00000

 k-point    52 :      -0.4167    0.2500    0.0833
  band No.  band energies     occupation 
      1      -0.2076      2.00000
      2       2.1141      2.00000
      3       6.1307      2.00000
      4       7.6546      2.00000
      5      12.8121      0.00000
      6      15.1633      0.00000
      7      17.2742      0.00000
      8      18.9901      0.00000

 k-point    53 :      -0.3333    0.2500    0.0833
  band No.  band energies     occupation 
      1      -0.4582      2.00000
      2       2.4405      2.00000
      3       5.8919      2.00000
      4       7.9488      2.00000
      5      13.1887      0.00000
      6      14.9179      0.00000
      7      17.4374      0.00000
      8      18.8375      0.00000

 k-point    54 :      -0.2500    0.2500    0.0833
  band No.  band energies     occupation 
      1      -1.4280      2.00000
      2       3.8706      2.00000
      3       5.8384      2.00000
      4       8.4650      2.00000
      5      13.7376      0.00000
      6      14.7746      0.00000
      7      16.5650      0.00000
      8      17.8234      0.00000

 k-point    55 :      -0.1667    0.2500    0.0833
  band No.  band energies     occupation 
      1      -2.3253      2.00000
      2       5.3579      2.00000
      3       6.2368      2.00000
      4       9.0900      2.00000
      5      14.3200      0.00000
      6      14.3862      0.00000
      7      15.7282      0.00000
      8      17.2624      0.00000

 k-point    56 :       0.4167    0.3333    0.0833
  band No.  band energies     occupation 
      1      -1.6569      2.00000
      2       5.0458      2.00000
      3       6.6641      2.00000
      4       7.2628      2.00000
      5      11.7466      0.00000
      6      12.4725      0.00000
      7      18.2821      0.00000
      8      19.7770      0.00000

 k-point    57 :       0.5000    0.3333    0.0833
  band No.  band energies     occupation 
      1      -0.7623      2.00000
      2       3.8540      2.00000
      3       5.7856      2.00000
      4       6.9009      2.00000
      5      11.9742      0.00000
      6      13.5061      0.00000
      7      17.8010      0.00000
      8      20.2378      0.00000

 k-point    58 :      -0.4167    0.3333    0.0833
  band No.  band energies     occupation 
      1       0.2026      2.00000
      2       2.6712      2.00000
      3       5.0303      2.00000
      4       6.9386      2.00000
      5      12.1299      0.00000
      6      15.1994      0.00000
      7      17.3867      0.00000
      8      20.1504      0.00000

 k-point    59 :      -0.3333    0.3333    0.0833
  band No.  band energies     occupation 
      1       0.3899      2.00000
      2       2.4834      2.00000
      3       4.5624      2.00000
      4       7.2571      2.00000
      5      12.5000      0.00000
      6      16.3053      0.00000
      7      17.6093      0.00000
      8      18.9255      0.00000

 k-point    60 :      -0.2500    0.3333    0.0833
  band No.  band energies     occupation 
      1      -0.5013      2.00000
      2       3.4450      2.00000
      3       4.6174      2.00000
      4       7.7920      2.00000
      5      13.0716      0.00000
      6      16.0461      0.00000
      7      16.8762      0.00000
      8      18.7175      0.00000

 k-point    61 :       0.5000    0.4167    0.0833
  band No.  band energies     occupation 
      1      -0.2190      2.00000
      2       3.2878      2.00000
      3       6.2524      2.00000
      4       6.4725      2.00000
      5      11.3895      0.00000
      6      11.7018      0.00000
      7      19.8904      0.00000
      8      21.6930      0.00000

 k-point    62 :      -0.4167    0.4167    0.0833
  band No.  band energies     occupation 
      1       0.7480      2.00000
      2       2.4070      2.00000
      3       5.1298      2.00000
      4       6.4380      2.00000
      5      11.6298      0.00000
      6      13.1650      0.00000
      7      19.4122      0.00000
      8      21.1095      0.00000

 k-point    63 :      -0.3333    0.4167    0.0833
  band No.  band energies     occupation 
      1       1.1638      2.00000
      2       2.1298      2.00000
      3       4.2829      2.00000
      4       6.7364      2.00000
      5      11.9575      0.00000
      6      15.1057      0.00000
      7      19.0023      0.00000
      8      19.0196      0.00000

 k-point    64 :      -0.4167    0.5000    0.0833
  band No.  band energies     occupation 
      1       1.4618      2.00000
      2       1.4618      2.00000
      3       6.1726      2.00000
      4       6.1726      2.00000
      5      11.3597      0.00000
      6      11.3597      0.00000
      7      21.6285      0.00000
      8      21.6285      0.00000

 k-point    65 :       0.5000    0.3333    0.1667
  band No.  band energies     occupation 
      1      -1.2088      2.00000
      2       4.3113      2.00000
      3       5.5376      2.00000
      4       7.3931      2.00000
      5      13.7455      0.00000
      6      14.0180      0.00000
      7      16.0558      0.00000
      8      19.4140      0.00000

 k-point    66 :      -0.4167    0.3333    0.1667
  band No.  band energies     occupation 
      1      -0.2374      2.00000
      2       3.1150      2.00000
      3       5.1503      2.00000
      4       6.8202      2.00000
      5      13.8308      0.00000
      6      14.8416      0.00000
      7      16.3095      0.00000
      8      19.6527      0.00000

 k-point    67 :      -0.3333    0.3333    0.1667
  band No.  band energies     occupation 
      1       0.4147      2.00000
      2       2.3207      2.00000
      3       5.1048      2.00000
      4       6.5965      2.00000
      5      13.8302      0.00000
      6      14.8900      0.00000
      7      17.4428      0.00000
      8      18.8401      0.00000

 k-point    68 :      -0.4167    0.4167    0.1667
  band No.  band energies     occupation 
      1       0.1635      2.00000
      2       3.1455      2.00000
      3       5.1864      2.00000
      4       5.9706      2.00000
      5      13.3937      0.00000
      6      13.5396      0.00000
      7      17.3055      0.00000
      8      20.5534      0.00000

 k-point    69 :      -0.3333    0.4167    0.1667
  band No.  band energies     occupation 
      1       1.0386      2.00000
      2       2.3873      2.00000
      3       4.6108      2.00000
      4       5.7598      2.00000
      5      13.6531      0.00000
      6      15.1352      0.00000
      7      17.0286      0.00000
      8      18.6058      0.00000

 k-point    70 :      -0.2500    0.4167    0.1667
  band No.  band energies     occupation 
      1       0.7009      2.00000
      2       2.6875      2.00000
      3       4.4159      2.00000
      4       6.1237      2.00000
      5      13.9815      0.00000
      6      15.5754      0.00000
      7      16.6479      0.00000
      8      18.3315      0.00000

 k-point    71 :      -0.3333    0.5000    0.1667
  band No.  band energies     occupation 
      1       1.6909      2.00000
      2       1.6909      2.00000
      3       5.2704      2.00000
      4       5.2704      2.00000
      5      13.3189      0.00000
      6      13.3189      0.00000
      7      18.9497      0.00000
      8      18.9497      0.00000

 k-point    72 :      -0.2500    0.5000    0.2500
  band No.  band energies     occupation 
      1       1.8321      2.00000
      2       1.8321      2.00000
      3       4.8720      2.00000
      4       4.8720      2.00000
      5      14.9858      0.00000
      6      14.9858      0.00000
      7      17.0353      0.00000
      8      17.0353      0.00000


--------------------------------------------------------------------------------------------------------


 soft charge-density along one line, spin component           1
         0         1         2         3         4         5         6         7         8         9
 total charge-density along one line
 
 pseudopotential strength for first ion, spin component:           1
 17.911  -0.006   0.000   0.000   0.000  -0.000  -0.000  -0.000
 -0.006   0.006  -0.000  -0.000  -0.000   0.000   0.000   0.000
  0.000  -0.000   4.137  -0.000  -0.000  -0.009   0.000   0.000
  0.000  -0.000  -0.000   4.137  -0.000   0.000  -0.009   0.000
  0.000  -0.000  -0.000  -0.000   4.137   0.000   0.000  -0.009
 -0.000   0.000  -0.009   0.000   0.000   0.005  -0.000  -0.000
 -0.000   0.000   0.000  -0.009   0.000  -0.000   0.005  -0.000
 -0.000   0.000   0.000   0.000  -0.009  -0.000  -0.000   0.005
 total augmentation occupancy for first ion, spin component:           1
  1.532  -1.412   0.000   0.000   0.000   0.000   0.000   0.000
 -1.412   1.956   0.000   0.000  -0.000   0.000   0.000  -0.000
 -0.000  -0.000   1.368   0.000   0.000  -0.937   0.000   0.000
 -0.000  -0.000   0.000   1.368   0.000   0.000  -0.937   0.000
  0.000  -0.000   0.000   0.000   1.368   0.000   0.000  -0.937
  0.000   0.000  -0.937   0.000   0.000   0.771   0.000   0.000
  0.000   0.000   0.000  -0.937   0.000   0.000   0.771   0.000
  0.000  -0.000   0.000   0.000  -0.937   0.000   0.000   0.771


------------------------ aborting loop because EDIFF is reached ----------------------------------------


    CHARGE:  cpu time    0.01: real time    0.01
    FORLOC:  cpu time    0.00: real time    0.00
    FORNL :  cpu time    0.02: real time    0.03
    STRESS:  cpu time    0.18: real time    0.18
    FORCOR:  cpu time    0.00: real time    0.01
    FORHAR:  cpu time    0.00: real time    0.00
    MIXING:  cpu time    0.00: real time    0.00
    OFIELD:  cpu time    0.00: real time    0.00

  FORCE on cell =-STRESS in cart. coord.  units (eV):
  Direction    XX          YY          ZZ          XY          YZ          ZX
  --------------------------------------------------------------------------------------
  Alpha Z     5.07591     5.07591     5.07591
  Ewald     -87.38411   -87.38411   -87.38411    -0.00000     0.00000    -0.00000
  Hartree     3.40201     3.40201     3.40201     0.00000     0.00000     0.00000
  E(xc)     -28.22247   -28.22247   -28.22247    -0.00000    -0.00000    -0.00000
  Local     -24.49727   -24.49727   -24.49727     0.00002     0.00002     0.00002
  n-local    91.79749    93.48339    87.03712     3.26420    -2.11880     0.94527
  augment   -12.47213   -12.47213   -12.47213    -0.00001    -0.00001    -0.00001
  Kinetic    71.26970    63.86640    70.24492     3.67541     0.26927     1.21532
  Fock        0.00000     0.00000     0.00000     0.00000     0.00000     0.00000
  -------------------------------------------------------------------------------------
  Total      15.13495    15.13495    15.13495     0.00000     0.00000    -0.00000
  in kB     914.09621   914.09621   914.09621     0.00000     0.00000    -0.00000
  external pressure =      914.10 kB  Pullay stress =        0.00 kB


 VOLUME and BASIS-vectors are now :
 -----------------------------------------------------------------------------
  energy-cutoff  :      600.00
  volume of cell :       26.53
      direct lattice vectors                 reciprocal lattice vectors
     0.000000000  2.367136104  2.367136104    -0.211225708  0.211225708  0.211225708
     2.367136104  0.000000000  2.367136104     0.211225708 -0.211225708  0.211225708
     2.367136104  2.367136104  0.000000000     0.211225708  0.211225708 -0.211225708

  length of vectors
     3.347635982  3.347635982  3.347635982     0.365853659  0.365853659  0.365853659


 FORCES acting on ions
    electron-ion (+dipol)            ewald-force                    non-local-force                 convergence-correction
 -----------------------------------------------------------------------------------------------
   -.115E-06 -.115E-06 -.257E-06   0.533E-14 0.624E-14 0.665E-14   -.711E-16 -.919E-16 -.555E-16   0.288E-15 -.120E-14 0.862E-15
   0.115E-06 0.115E-06 0.257E-06   -.514E-14 -.650E-14 -.637E-14   0.382E-16 0.798E-16 0.520E-16   0.327E-14 0.271E-14 -.589E-15
 -----------------------------------------------------------------------------------------------
   0.153E-13 0.722E-14 0.947E-14   0.191E-15 -.257E-15 0.284E-15   -.330E-16 -.121E-16 -.347E-17   0.356E-14 0.151E-14 0.273E-15
 
 
 POSITION                                       TOTAL-FORCE (eV/Angst)
 -----------------------------------------------------------------------------------
      0.00000      0.00000      0.00000        -0.000000     -0.000000      0.000000
      1.18357      1.18357      1.18357         0.000000      0.000000     -0.000000
 -----------------------------------------------------------------------------------
    total drift:                                0.000000      0.000000      0.000000


--------------------------------------------------------------------------------------------------------



  FREE ENERGIE OF THE ION-ELECTRON SYSTEM (eV)
  ---------------------------------------------------
  free  energy   TOTEN  =        -7.96839076 eV

  energy  without entropy=       -7.96783488  energy(sigma->0) =       -7.96811282
 


--------------------------------------------------------------------------------------------------------


    POTLOK:  cpu time    0.01: real time    0.01


--------------------------------------------------------------------------------------------------------


 writing wavefunctions
     LOOP+:  cpu time    4.22: real time    4.87
    4ORBIT:  cpu time    0.00: real time    0.00

 total amount of memory used by VASP on root node    38034. kBytes
========================================================================

   base      :      30000. kBytes
   nonl-proj :       4194. kBytes
   fftplans  :        595. kBytes
   grid      :       1120. kBytes
   one-center:          6. kBytes
   wavefun   :       2119. kBytes
 
  
  
 General timing and accounting informations for this job:
 ========================================================
  
                  Total CPU time used (sec):        4.452
                            User time (sec):        4.296
                          System time (sec):        0.156
                         Elapsed time (sec):        5.188
  
                   Maximum memory used (kb):       41816.
                   Average memory used (kb):           0.
  
                          Minor page faults:         5499
                          Major page faults:            5
                 Voluntary context switches:          552
