 vasp.5.3.5 31Mar14 (build Jun 01 2017 17:55:53) complex                        
  
 executed on             LinuxIFC date 2020.11.10  15:17:37
 running on    4 total cores
 distrk:  each k-point on    4 cores,    1 groups
 distr:  one band on NCORES_PER_BAND=   1 cores,    4 groups


--------------------------------------------------------------------------------------------------------


 INCAR:
 POTCAR:   PAW_PBE Si 05Jan2001                   
 POTCAR:   PAW_PBE Si 05Jan2001                   
   VRHFIN =Si: s2p2                                                             
   LEXCH  = PE                                                                  
   EATOM  =   103.0669 eV,    7.5752 Ry                                         
                                                                                
   TITEL  = PAW_PBE Si 05Jan2001                                                
   LULTRA =        F    use ultrasoft PP ?                                      
   IUNSCR =        1    unscreen: 0-lin 1-nonlin 2-no                           
   RPACOR =    1.500    partial core radius                                     
   POMASS =   28.085; ZVAL   =    4.000    mass and valenz                      
   RCORE  =    1.900    outmost cutoff radius                                   
   RWIGS  =    2.480; RWIGS  =    1.312    wigner-seitz radius (au A)           
   ENMAX  =  245.345; ENMIN  =  184.009 eV                                      
   ICORE  =        2    local potential                                         
   LCOR   =        T    correct aug charges                                     
   LPAW   =        T    paw PP                                                  
   EAUG   =  322.069                                                            
   DEXC   =    -.007                                                            
   RMAX   =    2.944    core radius for proj-oper                               
   RAUG   =    1.300    factor for augmentation sphere                          
   RDEP   =    1.993    radius for radial grids                                 
   QCUT   =   -4.246; QGAM   =    8.493    optimization parameters              
                                                                                
   Description                                                                  
     l     E      TYP  RCUT    TYP  RCUT                                        
     0   .000     23  1.900                                                     
     0   .000     23  1.900                                                     
     1   .000     23  1.900                                                     
     1   .000     23  1.900                                                     
     2   .000      7  1.900                                                     
  local pseudopotential read in
  partial core-charges read in
  atomic valenz-charges read in
  non local Contribution for L=           0  read in
    real space projection operators read in
  non local Contribution for L=           0  read in
    real space projection operators read in
  non local Contribution for L=           1  read in
    real space projection operators read in
  non local Contribution for L=           1  read in
    real space projection operators read in
    PAW grid and wavefunctions read in
 
   number of l-projection  operators is LMAX  =           4
   number of lm-projection operators is LMMAX =           8
 
 PAW_PBE Si 05Jan2001                   :
 energy of atom  1       EATOM= -103.0669
 kinetic energy error for atom=    0.0003 (will be added to EATOM!!)
 
 
 POSCAR: Si
  positions in direct lattice
  velocities in cartesian coordinates
  No initial velocities read in
 exchange correlation table for  LEXCH =        8
   RHO(1)=    0.500       N(1)  =     2000
   RHO(2)=  100.500       N(2)  =     4000
 


--------------------------------------------------------------------------------------------------------


 ion  position               nearest neighbor table
   1  0.000  0.000  0.000-   2 2.35   2 2.35   2 2.35   2 2.35
   2  0.250  0.250  0.250-   1 2.35   1 2.35   1 2.35   1 2.35
 
  LATTYP: Found a face centered cubic cell.
 ALAT       =     5.4270925304
  
  Lattice vectors:
  
 A1 = (   0.0000000000,   2.7135462652,   2.7135462652)
 A2 = (   2.7135462652,   0.0000000000,   2.7135462652)
 A3 = (   2.7135462652,   2.7135462652,   0.0000000000)


Analysis of symmetry for initial positions (statically):
=====================================================================
 Subroutine PRICEL returns:
 Original cell was already a primitive cell.
 

 Routine SETGRP: Setting up the symmetry group for a 
 face centered cubic supercell.


 Subroutine GETGRP returns: Found 48 space group operations
 (whereof 24 operations were pure point group operations)
 out of a pool of 48 trial point group operations.


The static configuration has the point symmetry T_d .
 The point group associated with its full space group is O_h .


Analysis of symmetry for dynamics (positions and initial velocities):
=====================================================================
 Subroutine PRICEL returns:
 Original cell was already a primitive cell.
 

 Routine SETGRP: Setting up the symmetry group for a 
 face centered cubic supercell.


 Subroutine GETGRP returns: Found 48 space group operations
 (whereof 24 operations were pure point group operations)
 out of a pool of 48 trial point group operations.


The dynamic configuration has the point symmetry T_d .
 The point group associated with its full space group is O_h .


Analysis of constrained symmetry for selective dynamics:
=====================================================================
 Subroutine PRICEL returns:
 Original cell was already a primitive cell.
 

 Routine SETGRP: Setting up the symmetry group for a 
 face centered cubic supercell.


 Subroutine GETGRP returns: Found 48 space group operations
 (whereof 24 operations were pure point group operations)
 out of a pool of 48 trial point group operations.


The constrained configuration has the point symmetry T_d .
 The point group associated with its full space group is O_h .
 
 
 KPOINTS: Gamma centered Monkhorst-Pack           

Automatic generation of k-mesh.
Space group operators:
 irot       det(A)        alpha          n_x          n_y          n_z        tau_x        tau_y        tau_z
    1     1.000000     0.000001     1.000000     0.000000     0.000000     0.000000     0.000000     0.000000
    2     1.000000   120.000000    -0.577350    -0.577350    -0.577350     0.000000     0.000000     0.000000
    3     1.000000   120.000000     0.577350     0.577350     0.577350     0.000000     0.000000     0.000000
    4    -1.000000    90.000000     0.000000     0.000000    -1.000000     0.000000     0.000000     0.000000
    5    -1.000000   180.000000     0.000000     0.707107     0.707107     0.000000     0.000000     0.000000
    6    -1.000000    90.000000     0.000000     1.000000     0.000000     0.000000     0.000000     0.000000
    7     1.000000   180.000000     0.000000     0.000000     1.000000     0.000000     0.000000     0.000000
    8     1.000000   120.000000    -0.577350     0.577350     0.577350     0.000000     0.000000     0.000000
    9     1.000000   120.000000    -0.577350     0.577350    -0.577350     0.000000     0.000000     0.000000
   10    -1.000000    90.000000     0.000000     0.000000     1.000000     0.000000     0.000000     0.000000
   11    -1.000000    90.000000    -1.000000     0.000000     0.000000     0.000000     0.000000     0.000000
   12    -1.000000   180.000000     0.707107     0.000000     0.707107     0.000000     0.000000     0.000000
   13     1.000000   120.000000     0.577350    -0.577350     0.577350     0.000000     0.000000     0.000000
   14     1.000000   120.000000    -0.577350    -0.577350     0.577350     0.000000     0.000000     0.000000
   15     1.000000   180.000000     1.000000     0.000000     0.000000     0.000000     0.000000     0.000000
   16    -1.000000    90.000000     0.000000    -1.000000     0.000000     0.000000     0.000000     0.000000
   17    -1.000000   180.000000     0.707107     0.707107     0.000000     0.000000     0.000000     0.000000
   18    -1.000000    90.000000     1.000000     0.000000     0.000000     0.000000     0.000000     0.000000
   19     1.000000   120.000000     0.577350    -0.577350    -0.577350     0.000000     0.000000     0.000000
   20     1.000000   180.000000     0.000000     1.000000     0.000000     0.000000     0.000000     0.000000
   21     1.000000   120.000000     0.577350     0.577350    -0.577350     0.000000     0.000000     0.000000
   22    -1.000000   180.000000     0.000000    -0.707107     0.707107     0.000000     0.000000     0.000000
   23    -1.000000   180.000000     0.707107    -0.707107     0.000000     0.000000     0.000000     0.000000
   24    -1.000000   180.000000     0.707107     0.000000    -0.707107     0.000000     0.000000     0.000000
   25    -1.000000     0.000001     1.000000     0.000000     0.000000     0.250000     0.250000     0.250000
   26    -1.000000   120.000000    -0.577350    -0.577350    -0.577350     0.250000     0.250000     0.250000
   27    -1.000000   120.000000     0.577350     0.577350     0.577350     0.250000     0.250000     0.250000
   28     1.000000    90.000000     0.000000     0.000000    -1.000000     0.250000     0.250000     0.250000
   29     1.000000   180.000000     0.000000     0.707107     0.707107     0.250000     0.250000     0.250000
   30     1.000000    90.000000     0.000000     1.000000     0.000000     0.250000     0.250000     0.250000
   31    -1.000000   180.000000     0.000000     0.000000     1.000000     0.250000     0.250000     0.250000
   32    -1.000000   120.000000    -0.577350     0.577350     0.577350     0.250000     0.250000     0.250000
   33    -1.000000   120.000000    -0.577350     0.577350    -0.577350     0.250000     0.250000     0.250000
   34     1.000000    90.000000     0.000000     0.000000     1.000000     0.250000     0.250000     0.250000
   35     1.000000    90.000000    -1.000000     0.000000     0.000000     0.250000     0.250000     0.250000
   36     1.000000   180.000000     0.707107     0.000000     0.707107     0.250000     0.250000     0.250000
   37    -1.000000   120.000000     0.577350    -0.577350     0.577350     0.250000     0.250000     0.250000
   38    -1.000000   120.000000    -0.577350    -0.577350     0.577350     0.250000     0.250000     0.250000
   39    -1.000000   180.000000     1.000000     0.000000     0.000000     0.250000     0.250000     0.250000
   40     1.000000    90.000000     0.000000    -1.000000     0.000000     0.250000     0.250000     0.250000
   41     1.000000   180.000000     0.707107     0.707107     0.000000     0.250000     0.250000     0.250000
   42     1.000000    90.000000     1.000000     0.000000     0.000000     0.250000     0.250000     0.250000
   43    -1.000000   120.000000     0.577350    -0.577350    -0.577350     0.250000     0.250000     0.250000
   44    -1.000000   180.000000     0.000000     1.000000     0.000000     0.250000     0.250000     0.250000
   45    -1.000000   120.000000     0.577350     0.577350    -0.577350     0.250000     0.250000     0.250000
   46     1.000000   180.000000     0.000000    -0.707107     0.707107     0.250000     0.250000     0.250000
   47     1.000000   180.000000     0.707107    -0.707107     0.000000     0.250000     0.250000     0.250000
   48     1.000000   180.000000     0.707107     0.000000    -0.707107     0.250000     0.250000     0.250000
 
 Subroutine IBZKPT returns following result:
 ===========================================
 
 Found     72 irreducible k-points:
 
 Following reciprocal coordinates:
            Coordinates               Weight
  0.000000  0.000000  0.000000      1.000000
  0.083333  0.000000  0.000000      8.000000
  0.166667  0.000000  0.000000      8.000000
  0.250000  0.000000  0.000000      8.000000
  0.333333  0.000000  0.000000      8.000000
  0.416667  0.000000  0.000000      8.000000
  0.500000  0.000000  0.000000      4.000000
  0.083333  0.083333  0.000000      6.000000
  0.166667  0.083333  0.000000     24.000000
  0.250000  0.083333  0.000000     24.000000
  0.333333  0.083333  0.000000     24.000000
  0.416667  0.083333  0.000000     24.000000
  0.500000  0.083333  0.000000     24.000000
 -0.416667  0.083333  0.000000     24.000000
 -0.333333  0.083333  0.000000     24.000000
 -0.250000  0.083333  0.000000     24.000000
 -0.166667  0.083333  0.000000     24.000000
 -0.083333  0.083333  0.000000     12.000000
  0.166667  0.166667  0.000000      6.000000
  0.250000  0.166667  0.000000     24.000000
  0.333333  0.166667  0.000000     24.000000
  0.416667  0.166667  0.000000     24.000000
  0.500000  0.166667  0.000000     24.000000
 -0.416667  0.166667  0.000000     24.000000
 -0.333333  0.166667  0.000000     24.000000
 -0.250000  0.166667  0.000000     24.000000
 -0.166667  0.166667  0.000000     12.000000
  0.250000  0.250000  0.000000      6.000000
  0.333333  0.250000  0.000000     24.000000
  0.416667  0.250000  0.000000     24.000000
  0.500000  0.250000  0.000000     24.000000
 -0.416667  0.250000  0.000000     24.000000
 -0.333333  0.250000  0.000000     24.000000
 -0.250000  0.250000  0.000000     12.000000
  0.333333  0.333333  0.000000      6.000000
  0.416667  0.333333  0.000000     24.000000
  0.500000  0.333333  0.000000     24.000000
 -0.416667  0.333333  0.000000     24.000000
 -0.333333  0.333333  0.000000     12.000000
  0.416667  0.416667  0.000000      6.000000
  0.500000  0.416667  0.000000     24.000000
 -0.416667  0.416667  0.000000     12.000000
  0.500000  0.500000  0.000000      3.000000
  0.250000  0.166667  0.083333     24.000000
  0.333333  0.166667  0.083333     48.000000
  0.416667  0.166667  0.083333     48.000000
  0.500000  0.166667  0.083333     48.000000
 -0.416667  0.166667  0.083333     24.000000
  0.333333  0.250000  0.083333     24.000000
  0.416667  0.250000  0.083333     48.000000
  0.500000  0.250000  0.083333     48.000000
 -0.416667  0.250000  0.083333     48.000000
 -0.333333  0.250000  0.083333     48.000000
 -0.250000  0.250000  0.083333     48.000000
 -0.166667  0.250000  0.083333     24.000000
  0.416667  0.333333  0.083333     24.000000
  0.500000  0.333333  0.083333     48.000000
 -0.416667  0.333333  0.083333     48.000000
 -0.333333  0.333333  0.083333     48.000000
 -0.250000  0.333333  0.083333     24.000000
  0.500000  0.416667  0.083333     24.000000
 -0.416667  0.416667  0.083333     48.000000
 -0.333333  0.416667  0.083333     24.000000
 -0.416667  0.500000  0.083333     12.000000
  0.500000  0.333333  0.166667     24.000000
 -0.416667  0.333333  0.166667     48.000000
 -0.333333  0.333333  0.166667     24.000000
 -0.416667  0.416667  0.166667     24.000000
 -0.333333  0.416667  0.166667     48.000000
 -0.250000  0.416667  0.166667     24.000000
 -0.333333  0.500000  0.166667     12.000000
 -0.250000  0.500000  0.250000      6.000000
 
 Following cartesian coordinates:
            Coordinates               Weight
  0.000000  0.000000  0.000000      1.000000
 -0.083333  0.083333  0.083333      8.000000
 -0.166667  0.166667  0.166667      8.000000
 -0.250000  0.250000  0.250000      8.000000
 -0.333333  0.333333  0.333333      8.000000
 -0.416667  0.416667  0.416667      8.000000
 -0.500000  0.500000  0.500000      4.000000
  0.000000  0.000000  0.166667      6.000000
 -0.083333  0.083333  0.250000     24.000000
 -0.166667  0.166667  0.333333     24.000000
 -0.250000  0.250000  0.416667     24.000000
 -0.333333  0.333333  0.500000     24.000000
 -0.416667  0.416667  0.583333     24.000000
  0.500000 -0.500000 -0.333333     24.000000
  0.416667 -0.416667 -0.250000     24.000000
  0.333333 -0.333333 -0.166667     24.000000
  0.250000 -0.250000 -0.083333     24.000000
  0.166667 -0.166667  0.000000     12.000000
  0.000000  0.000000  0.333333      6.000000
 -0.083333  0.083333  0.416667     24.000000
 -0.166667  0.166667  0.500000     24.000000
 -0.250000  0.250000  0.583333     24.000000
 -0.333333  0.333333  0.666667     24.000000
  0.583333 -0.583333 -0.250000     24.000000
  0.500000 -0.500000 -0.166667     24.000000
  0.416667 -0.416667 -0.083333     24.000000
  0.333333 -0.333333  0.000000     12.000000
  0.000000  0.000000  0.500000      6.000000
 -0.083333  0.083333  0.583333     24.000000
 -0.166667  0.166667  0.666667     24.000000
 -0.250000  0.250000  0.750000     24.000000
  0.666667 -0.666667 -0.166667     24.000000
  0.583333 -0.583333 -0.083333     24.000000
  0.500000 -0.500000  0.000000     12.000000
  0.000000  0.000000  0.666667      6.000000
 -0.083333  0.083333  0.750000     24.000000
 -0.166667  0.166667  0.833333     24.000000
  0.750000 -0.750000 -0.083333     24.000000
  0.666667 -0.666667  0.000000     12.000000
  0.000000  0.000000  0.833333      6.000000
 -0.083333  0.083333  0.916667     24.000000
  0.833333 -0.833333  0.000000     12.000000
  0.000000  0.000000  1.000000      3.000000
  0.000000  0.166667  0.333333     24.000000
 -0.083333  0.250000  0.416667     48.000000
 -0.166667  0.333333  0.500000     48.000000
 -0.250000  0.416667  0.583333     48.000000
  0.666667 -0.500000 -0.333333     24.000000
  0.000000  0.166667  0.500000     24.000000
 -0.083333  0.250000  0.583333     48.000000
 -0.166667  0.333333  0.666667     48.000000
  0.750000 -0.583333 -0.250000     48.000000
  0.666667 -0.500000 -0.166667     48.000000
  0.583333 -0.416667 -0.083333     48.000000
  0.500000 -0.333333  0.000000     24.000000
 -0.000000  0.166667  0.666667     24.000000
 -0.083333  0.250000  0.750000     48.000000
  0.833333 -0.666667 -0.166667     48.000000
  0.750000 -0.583333 -0.083333     48.000000
  0.666667 -0.500000  0.000000     24.000000
  0.000000  0.166667  0.833333     24.000000
  0.916667 -0.750000 -0.083333     48.000000
  0.833333 -0.666667  0.000000     24.000000
  1.000000 -0.833333  0.000000     12.000000
  0.000000  0.333333  0.666667     24.000000
  0.916667 -0.583333 -0.250000     48.000000
  0.833333 -0.500000 -0.166667     24.000000
  1.000000 -0.666667 -0.166667     24.000000
  0.916667 -0.583333 -0.083333     48.000000
  0.833333 -0.500000  0.000000     24.000000
  1.000000 -0.666667  0.000000     12.000000
  1.000000 -0.500000  0.000000      6.000000
 


--------------------------------------------------------------------------------------------------------




 Dimension of arrays:
   k-points           NKPTS =     72   k-points in BZ     NKDIM =     72   number of bands    NBANDS=      8
   number of dos      NEDOS =    301   number of ions     NIONS =      2
   non local maximal  LDIM  =      4   non local SUM 2l+1 LMDIM =      8
   total plane-waves  NPLWV =  13824
   max r-space proj   IRMAX =      1   max aug-charges    IRDMAX=  11764
   dimension x,y,z NGX =    24 NGY =   24 NGZ =   24
   dimension x,y,z NGXF=    48 NGYF=   48 NGZF=   48
   support grid    NGXF=    48 NGYF=   48 NGZF=   48
   ions per type =               2
 NGX,Y,Z   is equivalent  to a cutoff of  10.40, 10.40, 10.40 a.u.
 NGXF,Y,Z  is equivalent  to a cutoff of  20.79, 20.79, 20.79 a.u.


 I would recommend the setting:
   dimension x,y,z NGX =    23 NGY =   23 NGZ =   23
 SYSTEM =  Si
 POSCAR =  Si

 Startparameter for this run:
   NWRITE =      2    write-flag & timer
   PREC   = normal    normal or accurate (medium, high low for compatibility)
   ISTART =      0    job   : 0-new  1-cont  2-samecut
   ICHARG =      2    charge: 1-file 2-atom 10-const
   ISPIN  =      1    spin polarized calculation?
   LNONCOLLINEAR =      F non collinear calculations
   LSORBIT =      F    spin-orbit coupling
   INIWAV =      1    electr: 0-lowe 1-rand  2-diag
   LASPH  =      F    aspherical Exc in radial PAW
   METAGGA=      F    non-selfconsistent MetaGGA calc.

 Electronic Relaxation 1
   ENCUT  =  600.0 eV  44.10 Ry    6.64 a.u.   7.66  7.66  7.66*2*pi/ulx,y,z
   ENINI  =  600.0     initial cutoff
   ENAUG  = 1200.0 eV  augmentation charge cutoff
   NELM   =    500;   NELMIN=  2; NELMDL= -5     # of ELM steps 
   EDIFF  = 0.1E-09   stopping-criterion for ELM
   LREAL  =      F    real-space projection
   NLSPLINE    = F    spline interpolate recip. space projectors
   LCOMPAT=      F    compatible to vasp.4.4
   GGA_COMPAT  = T    GGA compatible to vasp.4.4-vasp.4.6
   LMAXPAW     = -100 max onsite density
   LMAXMIX     =    2 max onsite mixed and CHGCAR
   VOSKOWN=      0    Vosko Wilk Nusair interpolation
   ROPT   =    0.00000
 Ionic relaxation
   EDIFFG = 0.1E-08   stopping-criterion for IOM
   NSW    =      0    number of steps for IOM
   NBLOCK =      1;   KBLOCK =      1    inner block; outer block 
   IBRION =     -1    ionic relax: 0-MD 1-quasi-New 2-CG
   NFREE  =      0    steps in history (QN), initial steepest desc. (CG)
   ISIF   =      2    stress and relaxation
   IWAVPR =     10    prediction:  0-non 1-charg 2-wave 3-comb
   ISYM   =      2    0-nonsym 1-usesym 2-fastsym
   LCORR  =      T    Harris-Foulkes like correction to forces

   POTIM  = 0.5000    time-step for ionic-motion
   TEIN   =    0.0    initial temperature
   TEBEG  =    0.0;   TEEND  =   0.0 temperature during run
   SMASS  =  -3.00    Nose mass-parameter (am)
   estimated Nose-frequenzy (Omega)   =  0.10E-29 period in steps =****** mass=  -0.337E-27a.u.
   SCALEE = 1.0000    scale energy and forces
   NPACO  =    256;   APACO  = 16.0  distance and # of slots for P.C.
   PSTRESS=    0.0 pullay stress

  Mass of Ions in am
   POMASS =  28.09
  Ionic Valenz
   ZVAL   =   4.00
  Atomic Wigner-Seitz radii
   RWIGS  =  -1.00
  virtual crystal weights 
   VCA    =   1.00
   NELECT =       8.0000    total number of electrons
   NUPDOWN=      -1.0000    fix difference up-down

 DOS related values:
   EMIN   =  10.00;   EMAX   =-10.00  energy-range for DOS
   EFERMI =   0.00
   ISMEAR =    -1;   SIGMA  =   0.03  broadening in eV -4-tet -1-fermi 0-gaus

 Electronic relaxation 2 (details)
   IALGO  =     38    algorithm
   LDIAG  =      T    sub-space diagonalisation (order eigenvalues)
   LSUBROT=      F    optimize rotation matrix (better conditioning)
   TURBO    =      0    0=normal 1=particle mesh
   IRESTART =      0    0=no restart 2=restart with 2 vectors
   NREBOOT  =      0    no. of reboots
   NMIN     =      0    reboot dimension
   EREF     =   0.00    reference energy to select bands
   IMIX   =      4    mixing-type and parameters
     AMIX     =   0.40;   BMIX     =  1.00
     AMIX_MAG =   1.60;   BMIX_MAG =  1.00
     AMIN     =   0.10
     WC   =   100.;   INIMIX=   1;  MIXPRE=   1;  MAXMIX= -45

 Intra band minimization:
   WEIMIN = 0.0000     energy-eigenvalue tresh-hold
   EBREAK =  0.31E-11  absolut break condition
   DEPER  =   0.30     relativ break condition  

   TIME   =   0.40     timestep for ELM

  volume/ion in A,a.u.               =      19.98       134.84
  Fermi-wavevector in a.u.,A,eV,Ry     =   0.957688  1.809769 12.478818  0.917167
  Thomas-Fermi vector in A             =   2.086729
 
 Write flags
   LWAVE  =      T    write WAVECAR
   LCHARG =      T    write CHGCAR
   LVTOT  =      F    write LOCPOT, total local potential
   LVHAR  =      F    write LOCPOT, Hartree potential only
   LELF   =      F    write electronic localiz. function (ELF)
   LORBIT =      0    0 simple, 1 ext, 2 COOP (PROOUT)


 Dipole corrections
   LMONO  =      F    monopole corrections only (constant potential shift)
   LDIPOL =      F    correct potential (dipole corrections)
   IDIPOL =      0    1-x, 2-y, 3-z, 4-all directions 
   EPSILON=  1.0000000 bulk dielectric constant

 Exchange correlation treatment:
   GGA     =    PE    GGA type
   LEXCH   =     8    internal setting for exchange type
   VOSKOWN=      0    Vosko Wilk Nusair interpolation
   LHFCALC =     F    Hartree Fock is set to
   LHFONE  =     F    Hartree Fock one center treatment
   AEXX    =    0.0000 exact exchange contribution

 Linear response parameters
   LEPSILON=     F    determine dielectric tensor
   LRPA    =     F    only Hartree local field effects (RPA)
   LNABLA  =     F    use nabla operator in PAW spheres
   LVEL    =     F    velocity operator in full k-point grid
   LINTERFAST=   F  fast interpolation
   KINTER  =     0    interpolate to denser k-point grid
   CSHIFT  =0.1000    complex shift for real part using Kramers Kronig
   OMEGAMAX=  -1.0    maximum frequency
   DEG_THRESHOLD= 0.2000000E-02 threshold for treating states as degnerate
   RTIME   =    0.100 relaxation time in fs

 Orbital magnetization related:
   ORBITALMAG=     F  switch on orbital magnetization
   LCHIMAG   =     F  perturbation theory with respect to B field
   DQ        =  0.001000  dq finite difference perturbation B field



--------------------------------------------------------------------------------------------------------


 Static calculation
 charge density and potential will be updated during run
 non-spin polarized calculation
 Variant of blocked Davidson
 Davidson routine will perform the subspace rotation
 perform sub-space diagonalisation
    after iterative eigenvector-optimisation
 modified Broyden-mixing scheme, WC =      100.0
 initial mixing is a Kerker type mixing with AMIX =  0.4000 and BMIX =      1.0000
 Hartree-type preconditioning will be used
 using additional bands            4
 reciprocal scheme for non local part
 use partial core corrections
 calculate Harris-corrections to forces 
   (improved forces if not selfconsistent)
 use gradient corrections 
 use of overlap-Matrix (Vanderbilt PP)
 Fermi-smearing in eV        SIGMA  =   0.03


--------------------------------------------------------------------------------------------------------


  energy-cutoff  :      600.00
  volume of cell :       39.96
      direct lattice vectors                 reciprocal lattice vectors
     0.000000000  2.713546265  2.713546265    -0.184260724  0.184260724  0.184260724
     2.713546265  0.000000000  2.713546265     0.184260724 -0.184260724  0.184260724
     2.713546265  2.713546265  0.000000000     0.184260724  0.184260724 -0.184260724

  length of vectors
     3.837533930  3.837533930  3.837533930     0.319148936  0.319148936  0.319148936


 
 k-points in units of 2pi/SCALE and weight: Gamma centered Monkhorst-Pack           
   0.00000000  0.00000000  0.00000000       0.001
  -0.08333333  0.08333333  0.08333333       0.005
  -0.16666667  0.16666667  0.16666667       0.005
  -0.25000000  0.25000000  0.25000000       0.005
  -0.33333333  0.33333333  0.33333333       0.005
  -0.41666667  0.41666667  0.41666667       0.005
  -0.50000000  0.50000000  0.50000000       0.002
   0.00000000  0.00000000  0.16666667       0.003
  -0.08333333  0.08333333  0.25000000       0.014
  -0.16666667  0.16666667  0.33333333       0.014
  -0.25000000  0.25000000  0.41666667       0.014
  -0.33333333  0.33333333  0.50000000       0.014
  -0.41666667  0.41666667  0.58333333       0.014
   0.50000000 -0.50000000 -0.33333333       0.014
   0.41666667 -0.41666667 -0.25000000       0.014
   0.33333333 -0.33333333 -0.16666667       0.014
   0.25000000 -0.25000000 -0.08333333       0.014
   0.16666667 -0.16666667  0.00000000       0.007
   0.00000000  0.00000000  0.33333333       0.003
  -0.08333333  0.08333333  0.41666667       0.014
  -0.16666667  0.16666667  0.50000000       0.014
  -0.25000000  0.25000000  0.58333333       0.014
  -0.33333333  0.33333333  0.66666667       0.014
   0.58333333 -0.58333333 -0.25000000       0.014
   0.50000000 -0.50000000 -0.16666667       0.014
   0.41666667 -0.41666667 -0.08333333       0.014
   0.33333333 -0.33333333  0.00000000       0.007
   0.00000000  0.00000000  0.50000000       0.003
  -0.08333333  0.08333333  0.58333333       0.014
  -0.16666667  0.16666667  0.66666667       0.014
  -0.25000000  0.25000000  0.75000000       0.014
   0.66666667 -0.66666667 -0.16666667       0.014
   0.58333333 -0.58333333 -0.08333333       0.014
   0.50000000 -0.50000000  0.00000000       0.007
   0.00000000  0.00000000  0.66666667       0.003
  -0.08333333  0.08333333  0.75000000       0.014
  -0.16666667  0.16666667  0.83333333       0.014
   0.75000000 -0.75000000 -0.08333333       0.014
   0.66666667 -0.66666667  0.00000000       0.007
   0.00000000  0.00000000  0.83333333       0.003
  -0.08333333  0.08333333  0.91666667       0.014
   0.83333333 -0.83333333  0.00000000       0.007
   0.00000000  0.00000000  1.00000000       0.002
   0.00000000  0.16666667  0.33333333       0.014
  -0.08333333  0.25000000  0.41666667       0.028
  -0.16666667  0.33333333  0.50000000       0.028
  -0.25000000  0.41666667  0.58333333       0.028
   0.66666667 -0.50000000 -0.33333333       0.014
   0.00000000  0.16666667  0.50000000       0.014
  -0.08333333  0.25000000  0.58333333       0.028
  -0.16666667  0.33333333  0.66666667       0.028
   0.75000000 -0.58333333 -0.25000000       0.028
   0.66666667 -0.50000000 -0.16666667       0.028
   0.58333333 -0.41666667 -0.08333333       0.028
   0.50000000 -0.33333333  0.00000000       0.014
  -0.00000000  0.16666667  0.66666667       0.014
  -0.08333333  0.25000000  0.75000000       0.028
   0.83333333 -0.66666667 -0.16666667       0.028
   0.75000000 -0.58333333 -0.08333333       0.028
   0.66666667 -0.50000000  0.00000000       0.014
   0.00000000  0.16666667  0.83333333       0.014
   0.91666667 -0.75000000 -0.08333333       0.028
   0.83333333 -0.66666667  0.00000000       0.014
   1.00000000 -0.83333333  0.00000000       0.007
   0.00000000  0.33333333  0.66666667       0.014
   0.91666667 -0.58333333 -0.25000000       0.028
   0.83333333 -0.50000000 -0.16666667       0.014
   1.00000000 -0.66666667 -0.16666667       0.014
   0.91666667 -0.58333333 -0.08333333       0.028
   0.83333333 -0.50000000  0.00000000       0.014
   1.00000000 -0.66666667  0.00000000       0.007
   1.00000000 -0.50000000  0.00000000       0.003
 
 k-points in reciprocal lattice and weights: Gamma centered Monkhorst-Pack           
   0.00000000  0.00000000  0.00000000       0.001
   0.08333333  0.00000000  0.00000000       0.005
   0.16666667  0.00000000  0.00000000       0.005
   0.25000000  0.00000000  0.00000000       0.005
   0.33333333  0.00000000  0.00000000       0.005
   0.41666667  0.00000000  0.00000000       0.005
   0.50000000  0.00000000  0.00000000       0.002
   0.08333333  0.08333333  0.00000000       0.003
   0.16666667  0.08333333  0.00000000       0.014
   0.25000000  0.08333333  0.00000000       0.014
   0.33333333  0.08333333  0.00000000       0.014
   0.41666667  0.08333333  0.00000000       0.014
   0.50000000  0.08333333  0.00000000       0.014
  -0.41666667  0.08333333  0.00000000       0.014
  -0.33333333  0.08333333  0.00000000       0.014
  -0.25000000  0.08333333  0.00000000       0.014
  -0.16666667  0.08333333  0.00000000       0.014
  -0.08333333  0.08333333  0.00000000       0.007
   0.16666667  0.16666667  0.00000000       0.003
   0.25000000  0.16666667  0.00000000       0.014
   0.33333333  0.16666667  0.00000000       0.014
   0.41666667  0.16666667  0.00000000       0.014
   0.50000000  0.16666667  0.00000000       0.014
  -0.41666667  0.16666667  0.00000000       0.014
  -0.33333333  0.16666667  0.00000000       0.014
  -0.25000000  0.16666667  0.00000000       0.014
  -0.16666667  0.16666667  0.00000000       0.007
   0.25000000  0.25000000  0.00000000       0.003
   0.33333333  0.25000000  0.00000000       0.014
   0.41666667  0.25000000  0.00000000       0.014
   0.50000000  0.25000000  0.00000000       0.014
  -0.41666667  0.25000000  0.00000000       0.014
  -0.33333333  0.25000000  0.00000000       0.014
  -0.25000000  0.25000000  0.00000000       0.007
   0.33333333  0.33333333  0.00000000       0.003
   0.41666667  0.33333333  0.00000000       0.014
   0.50000000  0.33333333  0.00000000       0.014
  -0.41666667  0.33333333  0.00000000       0.014
  -0.33333333  0.33333333  0.00000000       0.007
   0.41666667  0.41666667  0.00000000       0.003
   0.50000000  0.41666667  0.00000000       0.014
  -0.41666667  0.41666667  0.00000000       0.007
   0.50000000  0.50000000  0.00000000       0.002
   0.25000000  0.16666667  0.08333333       0.014
   0.33333333  0.16666667  0.08333333       0.028
   0.41666667  0.16666667  0.08333333       0.028
   0.50000000  0.16666667  0.08333333       0.028
  -0.41666667  0.16666667  0.08333333       0.014
   0.33333333  0.25000000  0.08333333       0.014
   0.41666667  0.25000000  0.08333333       0.028
   0.50000000  0.25000000  0.08333333       0.028
  -0.41666667  0.25000000  0.08333333       0.028
  -0.33333333  0.25000000  0.08333333       0.028
  -0.25000000  0.25000000  0.08333333       0.028
  -0.16666667  0.25000000  0.08333333       0.014
   0.41666667  0.33333333  0.08333333       0.014
   0.50000000  0.33333333  0.08333333       0.028
  -0.41666667  0.33333333  0.08333333       0.028
  -0.33333333  0.33333333  0.08333333       0.028
  -0.25000000  0.33333333  0.08333333       0.014
   0.50000000  0.41666667  0.08333333       0.014
  -0.41666667  0.41666667  0.08333333       0.028
  -0.33333333  0.41666667  0.08333333       0.014
  -0.41666667  0.50000000  0.08333333       0.007
   0.50000000  0.33333333  0.16666667       0.014
  -0.41666667  0.33333333  0.16666667       0.028
  -0.33333333  0.33333333  0.16666667       0.014
  -0.41666667  0.41666667  0.16666667       0.014
  -0.33333333  0.41666667  0.16666667       0.028
  -0.25000000  0.41666667  0.16666667       0.014
  -0.33333333  0.50000000  0.16666667       0.007
  -0.25000000  0.50000000  0.25000000       0.003
 
 position of ions in fractional coordinates (direct lattice) 
   0.00000000  0.00000000  0.00000000
   0.25000000  0.25000000  0.25000000
 
 position of ions in cartesian coordinates  (Angst):
   0.00000000  0.00000000  0.00000000
   1.35677313  1.35677313  1.35677313
 


--------------------------------------------------------------------------------------------------------


 k-point  1 :   0.0000 0.0000 0.0000  plane waves:    1363
 k-point  2 :   0.0833 0.0000 0.0000  plane waves:    1345
 k-point  3 :   0.1667 0.0000 0.0000  plane waves:    1342
 k-point  4 :   0.2500 0.0000 0.0000  plane waves:    1339
 k-point  5 :   0.3333 0.0000 0.0000  plane waves:    1338
 k-point  6 :   0.4167 0.0000 0.0000  plane waves:    1338
 k-point  7 :   0.5000 0.0000 0.0000  plane waves:    1350
 k-point  8 :   0.0833 0.0833 0.0000  plane waves:    1343
 k-point  9 :   0.1667 0.0833 0.0000  plane waves:    1336
 k-point 10 :   0.2500 0.0833 0.0000  plane waves:    1338
 k-point 11 :   0.3333 0.0833 0.0000  plane waves:    1336
 k-point 12 :   0.4167 0.0833 0.0000  plane waves:    1329
 k-point 13 :   0.5000 0.0833 0.0000  plane waves:    1340
 k-point 14 :  -0.4167 0.0833 0.0000  plane waves:    1337
 k-point 15 :  -0.3333 0.0833 0.0000  plane waves:    1336
 k-point 16 :  -0.2500 0.0833 0.0000  plane waves:    1343
 k-point 17 :  -0.1667 0.0833 0.0000  plane waves:    1345
 k-point 18 :  -0.0833 0.0833 0.0000  plane waves:    1343
 k-point 19 :   0.1667 0.1667 0.0000  plane waves:    1335
 k-point 20 :   0.2500 0.1667 0.0000  plane waves:    1336
 k-point 21 :   0.3333 0.1667 0.0000  plane waves:    1330
 k-point 22 :   0.4167 0.1667 0.0000  plane waves:    1334
 k-point 23 :   0.5000 0.1667 0.0000  plane waves:    1336
 k-point 24 :  -0.4167 0.1667 0.0000  plane waves:    1335
 k-point 25 :  -0.3333 0.1667 0.0000  plane waves:    1338
 k-point 26 :  -0.2500 0.1667 0.0000  plane waves:    1335
 k-point 27 :  -0.1667 0.1667 0.0000  plane waves:    1341
 k-point 28 :   0.2500 0.2500 0.0000  plane waves:    1331
 k-point 29 :   0.3333 0.2500 0.0000  plane waves:    1330
 k-point 30 :   0.4167 0.2500 0.0000  plane waves:    1323
 k-point 31 :   0.5000 0.2500 0.0000  plane waves:    1328
 k-point 32 :  -0.4167 0.2500 0.0000  plane waves:    1328
 k-point 33 :  -0.3333 0.2500 0.0000  plane waves:    1330
 k-point 34 :  -0.2500 0.2500 0.0000  plane waves:    1320
 k-point 35 :   0.3333 0.3333 0.0000  plane waves:    1331
 k-point 36 :   0.4167 0.3333 0.0000  plane waves:    1329
 k-point 37 :   0.5000 0.3333 0.0000  plane waves:    1331
 k-point 38 :  -0.4167 0.3333 0.0000  plane waves:    1329
 k-point 39 :  -0.3333 0.3333 0.0000  plane waves:    1316
 k-point 40 :   0.4167 0.4167 0.0000  plane waves:    1339
 k-point 41 :   0.5000 0.4167 0.0000  plane waves:    1330
 k-point 42 :  -0.4167 0.4167 0.0000  plane waves:    1332
 k-point 43 :   0.5000 0.5000 0.0000  plane waves:    1338
 k-point 44 :   0.2500 0.1667 0.0833  plane waves:    1346
 k-point 45 :   0.3333 0.1667 0.0833  plane waves:    1340
 k-point 46 :   0.4167 0.1667 0.0833  plane waves:    1336
 k-point 47 :   0.5000 0.1667 0.0833  plane waves:    1333
 k-point 48 :  -0.4167 0.1667 0.0833  plane waves:    1344
 k-point 49 :   0.3333 0.2500 0.0833  plane waves:    1332
 k-point 50 :   0.4167 0.2500 0.0833  plane waves:    1331
 k-point 51 :   0.5000 0.2500 0.0833  plane waves:    1334
 k-point 52 :  -0.4167 0.2500 0.0833  plane waves:    1333
 k-point 53 :  -0.3333 0.2500 0.0833  plane waves:    1340
 k-point 54 :  -0.2500 0.2500 0.0833  plane waves:    1331
 k-point 55 :  -0.1667 0.2500 0.0833  plane waves:    1334
 k-point 56 :   0.4167 0.3333 0.0833  plane waves:    1325
 k-point 57 :   0.5000 0.3333 0.0833  plane waves:    1334
 k-point 58 :  -0.4167 0.3333 0.0833  plane waves:    1326
 k-point 59 :  -0.3333 0.3333 0.0833  plane waves:    1328
 k-point 60 :  -0.2500 0.3333 0.0833  plane waves:    1336
 k-point 61 :   0.5000 0.4167 0.0833  plane waves:    1334
 k-point 62 :  -0.4167 0.4167 0.0833  plane waves:    1329
 k-point 63 :  -0.3333 0.4167 0.0833  plane waves:    1326
 k-point 64 :  -0.4167 0.5000 0.0833  plane waves:    1328
 k-point 65 :   0.5000 0.3333 0.1667  plane waves:    1329
 k-point 66 :  -0.4167 0.3333 0.1667  plane waves:    1330
 k-point 67 :  -0.3333 0.3333 0.1667  plane waves:    1324
 k-point 68 :  -0.4167 0.4167 0.1667  plane waves:    1339
 k-point 69 :  -0.3333 0.4167 0.1667  plane waves:    1333
 k-point 70 :  -0.2500 0.4167 0.1667  plane waves:    1330
 k-point 71 :  -0.3333 0.5000 0.1667  plane waves:    1336
 k-point 72 :  -0.2500 0.5000 0.2500  plane waves:    1348

 maximum and minimum number of plane-waves per node :      1363     1316

 maximum number of plane-waves:      1363
 maximum index in each direction: 
   IXMAX=    8   IYMAX=    7   IZMAX=    7
   IXMIN=   -8   IYMIN=   -8   IZMIN=   -7

 WARNING: aliasing errors must be expected set NGX to  34 to avoid them
 WARNING: aliasing errors must be expected set NGY to  32 to avoid them
 WARNING: aliasing errors must be expected set NGZ to  30 to avoid them
 aliasing errors are usually negligible using standard VASP settings
 and one can safely disregard these warnings

 serial   3D FFT for wavefunctions
 parallel 3D FFT for charge:
    minimum data exchange during FFTs selected (reduces bandwidth)


 total amount of memory used by VASP on root node    42464. kBytes
========================================================================

   base      :      30000. kBytes
   nonl-proj :       6328. kBytes
   fftplans  :       1025. kBytes
   grid      :       1926. kBytes
   one-center:          6. kBytes
   wavefun   :       3179. kBytes
 
     INWAV:  cpu time    0.00: real time    0.00
 Broyden mixing: mesh for mixing (old mesh)
   NGX = 15   NGY = 15   NGZ = 15
  (NGX  = 48   NGY  = 48   NGZ  = 48)
  gives a total of   3375 points

 initial charge density was supplied:
 charge density of overlapping atoms calculated
 number of electron       8.0000000 magnetization 
 keeping initial charge density in first step


--------------------------------------------------------------------------------------------------------


 Maximum index for augmentation-charges         2829 (set IRDMAX)


--------------------------------------------------------------------------------------------------------


 First call to EWALD:  gamma=   0.518
 Maximum number of real-space cells 3x 3x 3
 Maximum number of reciprocal cells 3x 3x 3

 FEWALD executed in parallel
    FEWALD:  cpu time    0.00: real time    0.00


----------------------------------------- Iteration    1(   1)  ---------------------------------------


    POTLOK:  cpu time    0.03: real time    0.03
    SETDIJ:  cpu time    0.00: real time    0.00
     EDDAV:  cpu time    0.32: real time    0.33
       DOS:  cpu time    0.00: real time    0.00
    --------------------------------------------
      LOOP:  cpu time    0.35: real time    0.36

 eigenvalue-minimisations  :  1152
 total energy-change (2. order) : 0.8311195E+01  (-0.3558353E+03)
 number of electron       8.0000000 magnetization 
 augmentation part        8.0000000 magnetization 

 Free energy of the ion-electron system (eV)
  ---------------------------------------------------
  alpha Z        PSCENC =         3.36955176
  Ewald energy   TEWEN  =      -228.68597383
  -Hartree energ DENC   =       -10.97698233
  -exchange      EXHF   =         0.00000000
  -V(xc)+E(xc)   XCENC  =       -18.59554550
  PAW double counting   =        65.95520812      -30.76852678
  entropy T*S    EENTRO =        -0.00123945
  eigenvalues    EBANDS =        21.88158434
  atomic energy  EATOM  =       206.13311910
  ---------------------------------------------------
  free energy    TOTEN  =         8.31119543 eV

  energy without entropy =        8.31243488  energy(sigma->0) =        8.31181515


--------------------------------------------------------------------------------------------------------




----------------------------------------- Iteration    1(   2)  ---------------------------------------


     EDDAV:  cpu time    0.36: real time    0.39
       DOS:  cpu time    0.00: real time    0.00
    --------------------------------------------
      LOOP:  cpu time    0.36: real time    0.39

 eigenvalue-minimisations  :  1752
 total energy-change (2. order) :-0.1909123E+02  (-0.1857827E+02)
 number of electron       8.0000000 magnetization 
 augmentation part        8.0000000 magnetization 

 Free energy of the ion-electron system (eV)
  ---------------------------------------------------
  alpha Z        PSCENC =         3.36955176
  Ewald energy   TEWEN  =      -228.68597383
  -Hartree energ DENC   =       -10.97698233
  -exchange      EXHF   =         0.00000000
  -V(xc)+E(xc)   XCENC  =       -18.59554550
  PAW double counting   =        65.95520812      -30.76852678
  entropy T*S    EENTRO =        -0.00000000
  eigenvalues    EBANDS =         2.78911582
  atomic energy  EATOM  =       206.13311910
  ---------------------------------------------------
  free energy    TOTEN  =       -10.78003364 eV

  energy without entropy =      -10.78003364  energy(sigma->0) =      -10.78003364


--------------------------------------------------------------------------------------------------------




----------------------------------------- Iteration    1(   3)  ---------------------------------------


     EDDAV:  cpu time    0.30: real time    0.31
       DOS:  cpu time    0.00: real time    0.00
    --------------------------------------------
      LOOP:  cpu time    0.30: real time    0.31

 eigenvalue-minimisations  :  1456
 total energy-change (2. order) :-0.2437028E+00  (-0.2437028E+00)
 number of electron       8.0000000 magnetization 
 augmentation part        8.0000000 magnetization 

 Free energy of the ion-electron system (eV)
  ---------------------------------------------------
  alpha Z        PSCENC =         3.36955176
  Ewald energy   TEWEN  =      -228.68597383
  -Hartree energ DENC   =       -10.97698233
  -exchange      EXHF   =         0.00000000
  -V(xc)+E(xc)   XCENC  =       -18.59554550
  PAW double counting   =        65.95520812      -30.76852678
  entropy T*S    EENTRO =        -0.00000000
  eigenvalues    EBANDS =         2.54541307
  atomic energy  EATOM  =       206.13311910
  ---------------------------------------------------
  free energy    TOTEN  =       -11.02373639 eV

  energy without entropy =      -11.02373639  energy(sigma->0) =      -11.02373639


--------------------------------------------------------------------------------------------------------




----------------------------------------- Iteration    1(   4)  ---------------------------------------


     EDDAV:  cpu time    0.39: real time    0.42
       DOS:  cpu time    0.00: real time    0.00
    --------------------------------------------
      LOOP:  cpu time    0.39: real time    0.42

 eigenvalue-minimisations  :  1944
 total energy-change (2. order) :-0.1274615E-02  (-0.1274616E-02)
 number of electron       8.0000000 magnetization 
 augmentation part        8.0000000 magnetization 

 Free energy of the ion-electron system (eV)
  ---------------------------------------------------
  alpha Z        PSCENC =         3.36955176
  Ewald energy   TEWEN  =      -228.68597383
  -Hartree energ DENC   =       -10.97698233
  -exchange      EXHF   =         0.00000000
  -V(xc)+E(xc)   XCENC  =       -18.59554550
  PAW double counting   =        65.95520812      -30.76852678
  entropy T*S    EENTRO =        -0.00000000
  eigenvalues    EBANDS =         2.54413845
  atomic energy  EATOM  =       206.13311910
  ---------------------------------------------------
  free energy    TOTEN  =       -11.02501101 eV

  energy without entropy =      -11.02501101  energy(sigma->0) =      -11.02501101


--------------------------------------------------------------------------------------------------------




----------------------------------------- Iteration    1(   5)  ---------------------------------------


     EDDAV:  cpu time    0.29: real time    0.32
       DOS:  cpu time    0.00: real time    0.00
    CHARGE:  cpu time    0.02: real time    0.02
    MIXING:  cpu time    0.00: real time    0.00
    --------------------------------------------
      LOOP:  cpu time    0.31: real time    0.34

 eigenvalue-minimisations  :  1456
 total energy-change (2. order) :-0.5826139E-06  (-0.5828555E-06)
 number of electron       7.9999998 magnetization 
 augmentation part       -0.4708570 magnetization 

 Broyden mixing:
  rms(total) = 0.30148E+00    rms(broyden)= 0.30147E+00
  rms(prec ) = 0.87485E+00
  weight for this iteration     100.00

 Free energy of the ion-electron system (eV)
  ---------------------------------------------------
  alpha Z        PSCENC =         3.36955176
  Ewald energy   TEWEN  =      -228.68597383
  -Hartree energ DENC   =       -10.97698233
  -exchange      EXHF   =         0.00000000
  -V(xc)+E(xc)   XCENC  =       -18.59554550
  PAW double counting   =        65.95520812      -30.76852678
  entropy T*S    EENTRO =        -0.00000000
  eigenvalues    EBANDS =         2.54413787
  atomic energy  EATOM  =       206.13311910
  ---------------------------------------------------
  free energy    TOTEN  =       -11.02501159 eV

  energy without entropy =      -11.02501159  energy(sigma->0) =      -11.02501159


--------------------------------------------------------------------------------------------------------




----------------------------------------- Iteration    1(   6)  ---------------------------------------


    POTLOK:  cpu time    0.02: real time    0.01
    SETDIJ:  cpu time    0.00: real time    0.00
     EDDAV:  cpu time    0.28: real time    0.30
       DOS:  cpu time    0.00: real time    0.00
    CHARGE:  cpu time    0.02: real time    0.02
    MIXING:  cpu time    0.00: real time    0.00
    --------------------------------------------
      LOOP:  cpu time    0.31: real time    0.34

 eigenvalue-minimisations  :  1360
 total energy-change (2. order) : 0.1254990E+00  (-0.8338925E-02)
 number of electron       7.9999999 magnetization 
 augmentation part       -0.4649560 magnetization 

 Broyden mixing:
  rms(total) = 0.17851E+00    rms(broyden)= 0.17851E+00
  rms(prec ) = 0.51446E+00
  weight for this iteration     100.00

 eigenvalues of (default mixing * dielectric matrix)
  average eigenvalue GAMMA=   2.4308
  2.4308

 Free energy of the ion-electron system (eV)
  ---------------------------------------------------
  alpha Z        PSCENC =         3.36955176
  Ewald energy   TEWEN  =      -228.68597383
  -Hartree energ DENC   =       -12.47742952
  -exchange      EXHF   =         0.00000000
  -V(xc)+E(xc)   XCENC  =       -18.35911446
  PAW double counting   =        69.96419411      -34.88890765
  entropy T*S    EENTRO =        -0.00000000
  eigenvalues    EBANDS =         4.04504787
  atomic energy  EATOM  =       206.13311910
  ---------------------------------------------------
  free energy    TOTEN  =       -10.89951262 eV

  energy without entropy =      -10.89951262  energy(sigma->0) =      -10.89951262


--------------------------------------------------------------------------------------------------------




----------------------------------------- Iteration    1(   7)  ---------------------------------------


    POTLOK:  cpu time    0.01: real time    0.01
    SETDIJ:  cpu time    0.00: real time    0.00
     EDDAV:  cpu time    0.30: real time    0.32
       DOS:  cpu time    0.00: real time    0.00
    CHARGE:  cpu time    0.02: real time    0.02
    MIXING:  cpu time    0.00: real time    0.00
    --------------------------------------------
      LOOP:  cpu time    0.33: real time    0.36

 eigenvalue-minimisations  :  1504
 total energy-change (2. order) : 0.5717486E-01  (-0.1529645E-01)
 number of electron       7.9999999 magnetization 
 augmentation part       -0.4578861 magnetization 

 Broyden mixing:
  rms(total) = 0.15446E-01    rms(broyden)= 0.15446E-01
  rms(prec ) = 0.40217E-01
  weight for this iteration     100.00

 eigenvalues of (default mixing * dielectric matrix)
  average eigenvalue GAMMA=   2.4559
  2.4559  2.4559

 Free energy of the ion-electron system (eV)
  ---------------------------------------------------
  alpha Z        PSCENC =         3.36955176
  Ewald energy   TEWEN  =      -228.68597383
  -Hartree energ DENC   =       -14.88403932
  -exchange      EXHF   =         0.00000000
  -V(xc)+E(xc)   XCENC  =       -17.97118559
  PAW double counting   =        75.25383298      -40.32053649
  entropy T*S    EENTRO =        -0.00000006
  eigenvalues    EBANDS =         6.26289367
  atomic energy  EATOM  =       206.13311910
  ---------------------------------------------------
  free energy    TOTEN  =       -10.84233777 eV

  energy without entropy =      -10.84233771  energy(sigma->0) =      -10.84233774


--------------------------------------------------------------------------------------------------------




----------------------------------------- Iteration    1(   8)  ---------------------------------------


    POTLOK:  cpu time    0.02: real time    0.02
    SETDIJ:  cpu time    0.00: real time    0.00
     EDDAV:  cpu time    0.30: real time    0.42
       DOS:  cpu time    0.00: real time    0.00
    CHARGE:  cpu time    0.02: real time    0.02
    MIXING:  cpu time    0.00: real time    0.00
    --------------------------------------------
      LOOP:  cpu time    0.33: real time    0.46

 eigenvalue-minimisations  :  1312
 total energy-change (2. order) :-0.1325776E-02  (-0.4255639E-03)
 number of electron       7.9999999 magnetization 
 augmentation part       -0.4588863 magnetization 

 Broyden mixing:
  rms(total) = 0.25545E-02    rms(broyden)= 0.25545E-02
  rms(prec ) = 0.84579E-02
  weight for this iteration     100.00

 eigenvalues of (default mixing * dielectric matrix)
  average eigenvalue GAMMA=   2.1196
  1.3625  2.8014  2.1947

 Free energy of the ion-electron system (eV)
  ---------------------------------------------------
  alpha Z        PSCENC =         3.36955176
  Ewald energy   TEWEN  =      -228.68597383
  -Hartree energ DENC   =       -14.84908696
  -exchange      EXHF   =         0.00000000
  -V(xc)+E(xc)   XCENC  =       -17.96300898
  PAW double counting   =        74.36247681      -39.40072359
  entropy T*S    EENTRO =        -0.00000004
  eigenvalues    EBANDS =         6.18998217
  atomic energy  EATOM  =       206.13311910
  ---------------------------------------------------
  free energy    TOTEN  =       -10.84366354 eV

  energy without entropy =      -10.84366350  energy(sigma->0) =      -10.84366352


--------------------------------------------------------------------------------------------------------




----------------------------------------- Iteration    1(   9)  ---------------------------------------


    POTLOK:  cpu time    0.02: real time    0.02
    SETDIJ:  cpu time    0.00: real time    0.00
     EDDAV:  cpu time    0.36: real time    0.38
       DOS:  cpu time    0.00: real time    0.00
    CHARGE:  cpu time    0.02: real time    0.02
    MIXING:  cpu time    0.00: real time    0.00
    --------------------------------------------
      LOOP:  cpu time    0.40: real time    0.43

 eigenvalue-minimisations  :  1784
 total energy-change (2. order) :-0.9559393E-04  (-0.1099410E-04)
 number of electron       7.9999999 magnetization 
 augmentation part       -0.4589326 magnetization 

 Broyden mixing:
  rms(total) = 0.14871E-02    rms(broyden)= 0.14871E-02
  rms(prec ) = 0.36833E-02
  weight for this iteration     100.00

 eigenvalues of (default mixing * dielectric matrix)
  average eigenvalue GAMMA=   2.1963
  0.9798  3.0234  2.4871  2.2948

 Free energy of the ion-electron system (eV)
  ---------------------------------------------------
  alpha Z        PSCENC =         3.36955176
  Ewald energy   TEWEN  =      -228.68597383
  -Hartree energ DENC   =       -14.88913907
  -exchange      EXHF   =         0.00000000
  -V(xc)+E(xc)   XCENC  =       -17.95628608
  PAW double counting   =        74.35531605      -39.39365276
  entropy T*S    EENTRO =        -0.00000004
  eigenvalues    EBANDS =         6.22330572
  atomic energy  EATOM  =       206.13311910
  ---------------------------------------------------
  free energy    TOTEN  =       -10.84375914 eV

  energy without entropy =      -10.84375910  energy(sigma->0) =      -10.84375912


--------------------------------------------------------------------------------------------------------




----------------------------------------- Iteration    1(  10)  ---------------------------------------


    POTLOK:  cpu time    0.01: real time    0.01
    SETDIJ:  cpu time    0.00: real time    0.00
     EDDAV:  cpu time    0.28: real time    0.28
       DOS:  cpu time    0.00: real time    0.00
    CHARGE:  cpu time    0.02: real time    0.02
    MIXING:  cpu time    0.00: real time    0.00
    --------------------------------------------
      LOOP:  cpu time    0.31: real time    0.32

 eigenvalue-minimisations  :  1320
 total energy-change (2. order) :-0.2038894E-04  (-0.2957305E-05)
 number of electron       7.9999999 magnetization 
 augmentation part       -0.4588658 magnetization 

 Broyden mixing:
  rms(total) = 0.15569E-03    rms(broyden)= 0.15569E-03
  rms(prec ) = 0.42819E-03
  weight for this iteration     100.00

 eigenvalues of (default mixing * dielectric matrix)
  average eigenvalue GAMMA=   2.0171
  3.1462  2.5933  2.1645  0.9792  1.2024

 Free energy of the ion-electron system (eV)
  ---------------------------------------------------
  alpha Z        PSCENC =         3.36955176
  Ewald energy   TEWEN  =      -228.68597383
  -Hartree energ DENC   =       -14.89996159
  -exchange      EXHF   =         0.00000000
  -V(xc)+E(xc)   XCENC  =       -17.95623545
  PAW double counting   =        74.34921745      -39.38848487
  entropy T*S    EENTRO =        -0.00000004
  eigenvalues    EBANDS =         6.23498794
  atomic energy  EATOM  =       206.13311910
  ---------------------------------------------------
  free energy    TOTEN  =       -10.84377952 eV

  energy without entropy =      -10.84377949  energy(sigma->0) =      -10.84377951


--------------------------------------------------------------------------------------------------------




----------------------------------------- Iteration    1(  11)  ---------------------------------------


    POTLOK:  cpu time    0.01: real time    0.01
    SETDIJ:  cpu time    0.00: real time    0.00
     EDDAV:  cpu time    0.37: real time    0.38
       DOS:  cpu time    0.00: real time    0.00
    CHARGE:  cpu time    0.02: real time    0.02
    MIXING:  cpu time    0.00: real time    0.00
    --------------------------------------------
      LOOP:  cpu time    0.40: real time    0.41

 eigenvalue-minimisations  :  1824
 total energy-change (2. order) : 0.6455695E-06  (-0.4861604E-07)
 number of electron       7.9999999 magnetization 
 augmentation part       -0.4588801 magnetization 

 Broyden mixing:
  rms(total) = 0.55004E-04    rms(broyden)= 0.55003E-04
  rms(prec ) = 0.10808E-03
  weight for this iteration     100.00

 eigenvalues of (default mixing * dielectric matrix)
  average eigenvalue GAMMA=   2.1313
  3.1947  2.8239  2.5904  2.1672  0.9790  1.0323

 Free energy of the ion-electron system (eV)
  ---------------------------------------------------
  alpha Z        PSCENC =         3.36955176
  Ewald energy   TEWEN  =      -228.68597383
  -Hartree energ DENC   =       -14.89778260
  -exchange      EXHF   =         0.00000000
  -V(xc)+E(xc)   XCENC  =       -17.95640984
  PAW double counting   =        74.33865251      -39.37746445
  entropy T*S    EENTRO =        -0.00000004
  eigenvalues    EBANDS =         6.23252850
  atomic energy  EATOM  =       206.13311910
  ---------------------------------------------------
  free energy    TOTEN  =       -10.84377888 eV

  energy without entropy =      -10.84377884  energy(sigma->0) =      -10.84377886


--------------------------------------------------------------------------------------------------------




----------------------------------------- Iteration    1(  12)  ---------------------------------------


    POTLOK:  cpu time    0.01: real time    0.01
    SETDIJ:  cpu time    0.00: real time    0.00
     EDDAV:  cpu time    0.40: real time    0.46
       DOS:  cpu time    0.00: real time    0.00
    CHARGE:  cpu time    0.02: real time    0.02
    MIXING:  cpu time    0.00: real time    0.00
    --------------------------------------------
      LOOP:  cpu time    0.44: real time    0.50

 eigenvalue-minimisations  :  1360
 total energy-change (2. order) : 0.8834292E-08  (-0.4878382E-08)
 number of electron       7.9999999 magnetization 
 augmentation part       -0.4588774 magnetization 

 Broyden mixing:
  rms(total) = 0.58105E-05    rms(broyden)= 0.58105E-05
  rms(prec ) = 0.19008E-04
  weight for this iteration     100.00

 eigenvalues of (default mixing * dielectric matrix)
  average eigenvalue GAMMA=   1.9871
  3.2415  2.6904  2.3739  2.2828  0.9743  1.0621  1.2849

 Free energy of the ion-electron system (eV)
  ---------------------------------------------------
  alpha Z        PSCENC =         3.36955176
  Ewald energy   TEWEN  =      -228.68597383
  -Hartree energ DENC   =       -14.89828335
  -exchange      EXHF   =         0.00000000
  -V(xc)+E(xc)   XCENC  =       -17.95637027
  PAW double counting   =        74.34088238      -39.37964080
  entropy T*S    EENTRO =        -0.00000004
  eigenvalues    EBANDS =         6.23293616
  atomic energy  EATOM  =       206.13311910
  ---------------------------------------------------
  free energy    TOTEN  =       -10.84377887 eV

  energy without entropy =      -10.84377883  energy(sigma->0) =      -10.84377885


--------------------------------------------------------------------------------------------------------




----------------------------------------- Iteration    1(  13)  ---------------------------------------


    POTLOK:  cpu time    0.01: real time    0.02
    SETDIJ:  cpu time    0.00: real time    0.00
     EDDAV:  cpu time    0.38: real time    0.43
       DOS:  cpu time    0.00: real time    0.00
    CHARGE:  cpu time    0.02: real time    0.02
    MIXING:  cpu time    0.00: real time    0.00
    --------------------------------------------
      LOOP:  cpu time    0.40: real time    0.48

 eigenvalue-minimisations  :  1864
 total energy-change (2. order) : 0.1373144E-07  (-0.6296111E-10)
 number of electron       7.9999999 magnetization 
 augmentation part       -0.4588779 magnetization 

 Broyden mixing:
  rms(total) = 0.18109E-05    rms(broyden)= 0.18109E-05
  rms(prec ) = 0.28535E-05
  weight for this iteration     100.00

 eigenvalues of (default mixing * dielectric matrix)
  average eigenvalue GAMMA=   2.0498
  3.2406  2.7566  2.7566  2.4887  2.1866  1.0137  0.9927  0.9626

 Free energy of the ion-electron system (eV)
  ---------------------------------------------------
  alpha Z        PSCENC =         3.36955176
  Ewald energy   TEWEN  =      -228.68597383
  -Hartree energ DENC   =       -14.89819259
  -exchange      EXHF   =         0.00000000
  -V(xc)+E(xc)   XCENC  =       -17.95637753
  PAW double counting   =        74.34047412      -39.37922425
  entropy T*S    EENTRO =        -0.00000004
  eigenvalues    EBANDS =         6.23284440
  atomic energy  EATOM  =       206.13311910
  ---------------------------------------------------
  free energy    TOTEN  =       -10.84377886 eV

  energy without entropy =      -10.84377882  energy(sigma->0) =      -10.84377884


--------------------------------------------------------------------------------------------------------




----------------------------------------- Iteration    1(  14)  ---------------------------------------


    POTLOK:  cpu time    0.02: real time    0.02
    SETDIJ:  cpu time    0.00: real time    0.00
     EDDAV:  cpu time    0.28: real time    0.34
       DOS:  cpu time    0.00: real time    0.00
    CHARGE:  cpu time    0.02: real time    0.02
    MIXING:  cpu time    0.00: real time    0.00
    --------------------------------------------
      LOOP:  cpu time    0.31: real time    0.37

 eigenvalue-minimisations  :  1296
 total energy-change (2. order) :-0.4848886E-08  (-0.6241948E-11)
 number of electron       7.9999999 magnetization 
 augmentation part       -0.4588779 magnetization 

 Broyden mixing:
  rms(total) = 0.23735E-06    rms(broyden)= 0.23734E-06
  rms(prec ) = 0.64182E-06
  weight for this iteration     100.00

 eigenvalues of (default mixing * dielectric matrix)
  average eigenvalue GAMMA=   1.9504
  3.2321  2.8864  2.2029  2.6329  2.4916  0.9516  0.9841  1.0234  1.1487

 Free energy of the ion-electron system (eV)
  ---------------------------------------------------
  alpha Z        PSCENC =         3.36955176
  Ewald energy   TEWEN  =      -228.68597383
  -Hartree energ DENC   =       -14.89818601
  -exchange      EXHF   =         0.00000000
  -V(xc)+E(xc)   XCENC  =       -17.95637672
  PAW double counting   =        74.34044033      -39.37919564
  entropy T*S    EENTRO =        -0.00000004
  eigenvalues    EBANDS =         6.23284217
  atomic energy  EATOM  =       206.13311910
  ---------------------------------------------------
  free energy    TOTEN  =       -10.84377886 eV

  energy without entropy =      -10.84377883  energy(sigma->0) =      -10.84377884


--------------------------------------------------------------------------------------------------------




----------------------------------------- Iteration    1(  15)  ---------------------------------------


    POTLOK:  cpu time    0.02: real time    0.01
    SETDIJ:  cpu time    0.00: real time    0.00
     EDDAV:  cpu time    0.22: real time    0.24
       DOS:  cpu time    0.00: real time    0.00
    CHARGE:  cpu time    0.02: real time    0.02
    MIXING:  cpu time    0.00: real time    0.00
    --------------------------------------------
      LOOP:  cpu time    0.26: real time    0.28

 eigenvalue-minimisations  :   984
 total energy-change (2. order) :-0.9364953E-09  (-0.1104338E-12)
 number of electron       7.9999999 magnetization 
 augmentation part       -0.4588779 magnetization 

 Broyden mixing:
  rms(total) = 0.44671E-07    rms(broyden)= 0.44644E-07
  rms(prec ) = 0.80037E-07
  weight for this iteration     100.00

 eigenvalues of (default mixing * dielectric matrix)
  average eigenvalue GAMMA=   2.0065
  3.2321  2.1940  2.8497  2.6739  2.6739  2.4772  1.0121  0.9918  0.9799  0.9799

 Free energy of the ion-electron system (eV)
  ---------------------------------------------------
  alpha Z        PSCENC =         3.36955176
  Ewald energy   TEWEN  =      -228.68597383
  -Hartree energ DENC   =       -14.89818765
  -exchange      EXHF   =         0.00000000
  -V(xc)+E(xc)   XCENC  =       -17.95637678
  PAW double counting   =        74.34045435      -39.37921033
  entropy T*S    EENTRO =        -0.00000004
  eigenvalues    EBANDS =         6.23284454
  atomic energy  EATOM  =       206.13311910
  ---------------------------------------------------
  free energy    TOTEN  =       -10.84377886 eV

  energy without entropy =      -10.84377883  energy(sigma->0) =      -10.84377884


--------------------------------------------------------------------------------------------------------




----------------------------------------- Iteration    1(  16)  ---------------------------------------


    POTLOK:  cpu time    0.01: real time    0.01
    SETDIJ:  cpu time    0.00: real time    0.00
     EDDAV:  cpu time    0.19: real time    0.20
       DOS:  cpu time    0.00: real time    0.00
    CHARGE:  cpu time    0.02: real time    0.02
    MIXING:  cpu time    0.00: real time    0.00
    --------------------------------------------
      LOOP:  cpu time    0.22: real time    0.24

 eigenvalue-minimisations  :   808
 total energy-change (2. order) : 0.1312515E-09  (-0.9235931E-13)
 number of electron       7.9999999 magnetization 
 augmentation part       -0.4588779 magnetization 

 Broyden mixing:
  rms(total) = 0.11406E-07    rms(broyden)= 0.11303E-07
  rms(prec ) = 0.30182E-07
  weight for this iteration     100.00

 eigenvalues of (default mixing * dielectric matrix)
  average eigenvalue GAMMA=   1.9362
  3.2412  2.1959  2.9018  2.7682  2.6214  2.5084  0.9798  1.0055  1.0055  1.0354
  1.0354

 Free energy of the ion-electron system (eV)
  ---------------------------------------------------
  alpha Z        PSCENC =         3.36955176
  Ewald energy   TEWEN  =      -228.68597383
  -Hartree energ DENC   =       -14.89818749
  -exchange      EXHF   =         0.00000000
  -V(xc)+E(xc)   XCENC  =       -17.95637686
  PAW double counting   =        74.34045417      -39.37920999
  entropy T*S    EENTRO =        -0.00000004
  eigenvalues    EBANDS =         6.23284431
  atomic energy  EATOM  =       206.13311910
  ---------------------------------------------------
  free energy    TOTEN  =       -10.84377886 eV

  energy without entropy =      -10.84377883  energy(sigma->0) =      -10.84377884


--------------------------------------------------------------------------------------------------------




----------------------------------------- Iteration    1(  17)  ---------------------------------------


    POTLOK:  cpu time    0.01: real time    0.02
    SETDIJ:  cpu time    0.00: real time    0.00
     EDDAV:  cpu time    0.21: real time    0.22
       DOS:  cpu time    0.00: real time    0.00
    --------------------------------------------
      LOOP:  cpu time    0.22: real time    0.24

 eigenvalue-minimisations  :   880
 total energy-change (2. order) :-0.4718004E-11  (-0.3204413E-13)
 number of electron       7.9999999 magnetization 
 augmentation part       -0.4588779 magnetization 

 Free energy of the ion-electron system (eV)
  ---------------------------------------------------
  alpha Z        PSCENC =         3.36955176
  Ewald energy   TEWEN  =      -228.68597383
  -Hartree energ DENC   =       -14.89818765
  -exchange      EXHF   =         0.00000000
  -V(xc)+E(xc)   XCENC  =       -17.95637683
  PAW double counting   =        74.34045450      -39.37921034
  entropy T*S    EENTRO =        -0.00000004
  eigenvalues    EBANDS =         6.23284445
  atomic energy  EATOM  =       206.13311910
  ---------------------------------------------------
  free energy    TOTEN  =       -10.84377886 eV

  energy without entropy =      -10.84377883  energy(sigma->0) =      -10.84377884


--------------------------------------------------------------------------------------------------------




 average (electrostatic) potential at core
  the test charge radii are     0.9892
  (the norm of the test charge is              1.0000)
       1 -83.2276       2 -83.2276
 
 
 
 E-fermi :   6.1225     XC(G=0):  -9.4169     alpha+bet :-12.0038


 k-point     1 :       0.0000    0.0000    0.0000
  band No.  band energies     occupation 
      1      -6.1251      2.00000
      2       5.8458      1.99997
      3       5.8458      1.99997
      4       5.8458      1.99997
      5       8.4125      0.00000
      6       8.4125      0.00000
      7       8.4125      0.00000
      8       9.2428      0.00000

 k-point     2 :       0.0833    0.0000    0.0000
  band No.  band energies     occupation 
      1      -6.0340      2.00000
      2       4.9885      2.00000
      3       5.7021      2.00000
      4       5.7021      2.00000
      5       8.4608      0.00000
      6       8.6242      0.00000
      7       8.6242      0.00000
      8       9.9005      0.00000

 k-point     3 :       0.1667    0.0000    0.0000
  band No.  band energies     occupation 
      1      -5.7633      2.00000
      2       3.4659      2.00000
      3       5.3955      2.00000
      4       5.3955      2.00000
      5       8.2068      0.00000
      6       9.0605      0.00000
      7       9.0605      0.00000
      8      11.3222      0.00000

 k-point     4 :       0.2500    0.0000    0.0000
  band No.  band energies     occupation 
      1      -5.3240      2.00000
      2       1.9183      2.00000
      3       5.0862      2.00000
      4       5.0862      2.00000
      5       7.8849      0.00000
      6       9.3549      0.00000
      7       9.3549      0.00000
      8      12.7864      0.00000

 k-point     5 :       0.3333    0.0000    0.0000
  band No.  band energies     occupation 
      1      -4.7458      2.00000
      2       0.5093      2.00000
      3       4.8455      2.00000
      4       4.8455      2.00000
      5       7.6191      0.00000
      6       9.3544      0.00000
      7       9.3544      0.00000
      8      13.7253      0.00000

 k-point     6 :       0.4167    0.0000    0.0000
  band No.  band energies     occupation 
      1      -4.1239      2.00000
      2      -0.6224      2.00000
      3       4.6972      2.00000
      4       4.6972      2.00000
      5       7.4507      0.00000
      6       9.2406      0.00000
      7       9.2406      0.00000
      8      13.6615      0.00000

 k-point     7 :       0.5000    0.0000    0.0000
  band No.  band energies     occupation 
      1      -3.7888      2.00000
      2      -1.1290      2.00000
      3       4.6474      2.00000
      4       4.6474      2.00000
      5       7.3936      0.00000
      6       9.1857      0.00000
      7       9.1857      0.00000
      8      13.5784      0.00000

 k-point     8 :       0.0833    0.0833    0.0000
  band No.  band energies     occupation 
      1      -6.0034      2.00000
      2       5.1550      2.00000
      3       5.4155      2.00000
      4       5.4155      2.00000
      5       8.1377      0.00000
      6       8.9923      0.00000
      7       8.9923      0.00000
      8       9.8795      0.00000

 k-point     9 :       0.1667    0.0833    0.0000
  band No.  band energies     occupation 
      1      -5.7921      2.00000
      2       3.9204      2.00000
      3       5.0514      2.00000
      4       5.2433      2.00000
      5       8.1599      0.00000
      6       9.0810      0.00000
      7       9.5313      0.00000
      8      10.7653      0.00000

 k-point    10 :       0.2500    0.0833    0.0000
  band No.  band energies     occupation 
      1      -5.4074      2.00000
      2       2.4169      2.00000
      3       4.7382      2.00000
      4       4.9199      2.00000
      5       8.2891      0.00000
      6       9.0693      0.00000
      7       9.9165      0.00000
      8      11.2502      0.00000

 k-point    11 :       0.3333    0.0833    0.0000
  band No.  band energies     occupation 
      1      -4.8704      2.00000
      2       0.9785      2.00000
      3       4.5283      2.00000
      4       4.5666      2.00000
      5       8.1480      0.00000
      6       9.1476      0.00000
      7       9.9381      0.00000
      8      11.8189      0.00000

 k-point    12 :       0.4167    0.0833    0.0000
  band No.  band energies     occupation 
      1      -4.2435      2.00000
      2      -0.2539      2.00000
      3       4.2701      2.00000
      4       4.4387      2.00000
      5       7.9833      0.00000
      6       9.1120      0.00000
      7       9.7412      0.00000
      8      12.8704      0.00000

 k-point    13 :       0.5000    0.0833    0.0000
  band No.  band energies     occupation 
      1      -3.7514      2.00000
      2      -1.0254      2.00000
      3       4.0647      2.00000
      4       4.4698      2.00000
      5       7.9037      0.00000
      6       9.1123      0.00000
      7       9.5404      0.00000
      8      13.7746      0.00000

 k-point    14 :      -0.4167    0.0833    0.0000
  band No.  band energies     occupation 
      1      -3.8726      2.00000
      2      -0.8472      2.00000
      3       3.9690      2.00000
      4       4.6132      2.00000
      5       7.9312      0.00000
      6       9.2285      0.00000
      7       9.4295      0.00000
      8      13.8831      0.00000

 k-point    15 :      -0.3333    0.0833    0.0000
  band No.  band energies     occupation 
      1      -4.4559      2.00000
      2       0.1270      2.00000
      3       3.9960      2.00000
      4       4.8530      2.00000
      5       8.0647      0.00000
      6       9.3985      0.00000
      7       9.4386      0.00000
      8      13.3433      0.00000

 k-point    16 :      -0.2500    0.0833    0.0000
  band No.  band energies     occupation 
      1      -5.0651      2.00000
      2       1.4436      2.00000
      3       4.1554      2.00000
      4       5.1633      2.00000
      5       8.2909      0.00000
      6       9.3193      0.00000
      7       9.5930      0.00000
      8      12.3764      0.00000

 k-point    17 :      -0.1667    0.0833    0.0000
  band No.  band energies     occupation 
      1      -5.5548      2.00000
      2       2.9043      2.00000
      3       4.4593      2.00000
      4       5.4928      2.00000
      5       8.5731      0.00000
      6       9.0203      0.00000
      7       9.3820      0.00000
      8      11.6031      0.00000

 k-point    18 :      -0.0833    0.0833    0.0000
  band No.  band energies     occupation 
      1      -5.8828      2.00000
      2       4.2586      2.00000
      3       4.9816      2.00000
      4       5.7281      2.00000
      5       8.6623      0.00000
      6       8.7890      0.00000
      7       8.8173      0.00000
      8      10.6939      0.00000

 k-point    19 :       0.1667    0.1667    0.0000
  band No.  band energies     occupation 
      1      -5.6402      2.00000
      2       3.8119      2.00000
      3       4.6521      2.00000
      4       4.6521      2.00000
      5       7.5521      0.00000
      6      10.1587      0.00000
      7      10.1966      0.00000
      8      10.1966      0.00000

 k-point    20 :       0.2500    0.1667    0.0000
  band No.  band energies     occupation 
      1      -5.3124      2.00000
      2       2.7230      2.00000
      3       4.3053      2.00000
      4       4.3175      2.00000
      5       7.5715      0.00000
      6       9.7506      0.00000
      7      10.5319      0.00000
      8      10.7599      0.00000

 k-point    21 :       0.3333    0.1667    0.0000
  band No.  band energies     occupation 
      1      -4.8234      2.00000
      2       1.4100      2.00000
      3       3.8528      2.00000
      4       4.0988      2.00000
      5       7.8121      0.00000
      6       9.9207      0.00000
      7      10.3722      0.00000
      8      10.9260      0.00000

 k-point    22 :       0.4167    0.1667    0.0000
  band No.  band energies     occupation 
      1      -4.2143      2.00000
      2       0.1730      2.00000
      3       3.4131      2.00000
      4       4.0149      2.00000
      5       7.8576      0.00000
      6      10.1129      0.00000
      7      10.7439      0.00000
      8      10.9008      0.00000

 k-point    23 :       0.5000    0.1667    0.0000
  band No.  band energies     occupation 
      1      -3.6294      2.00000
      2      -0.7632      2.00000
      3       3.0680      2.00000
      4       4.0689      2.00000
      5       7.8896      0.00000
      6       9.9685      0.00000
      7      10.4700      0.00000
      8      12.2740      0.00000

 k-point    24 :      -0.4167    0.1667    0.0000
  band No.  band energies     occupation 
      1      -3.5146      2.00000
      2      -0.9235      2.00000
      3       2.8536      2.00000
      4       4.2531      2.00000
      5       8.0356      0.00000
      6       9.9201      0.00000
      7      10.2434      0.00000
      8      13.8330      0.00000

 k-point    25 :      -0.3333    0.1667    0.0000
  band No.  band energies     occupation 
      1      -4.0153      2.00000
      2      -0.1628      2.00000
      3       2.7966      2.00000
      4       4.5485      2.00000
      5       8.3026      0.00000
      6       9.9732      0.00000
      7      10.0784      0.00000
      8      13.1518      0.00000

 k-point    26 :      -0.2500    0.1667    0.0000
  band No.  band energies     occupation 
      1      -4.6410      2.00000
      2       0.9864      2.00000
      3       2.9406      2.00000
      4       4.9170      2.00000
      5       8.6368      0.00000
      6       9.8520      0.00000
      7      10.0271      0.00000
      8      11.9911      0.00000

 k-point    27 :      -0.1667    0.1667    0.0000
  band No.  band energies     occupation 
      1      -5.1740      2.00000
      2       2.1301      2.00000
      3       3.4311      2.00000
      4       5.2814      2.00000
      5       8.8960      0.00000
      6       9.4090      0.00000
      7       9.6970      0.00000
      8      11.5229      0.00000

 k-point    28 :       0.2500    0.2500    0.0000
  band No.  band energies     occupation 
      1      -5.0413      2.00000
      2       2.3323      2.00000
      3       3.9547      2.00000
      4       3.9547      2.00000
      5       6.9761      0.00000
      6       8.9798      0.00000
      7      11.6103      0.00000
      8      11.6103      0.00000

 k-point    29 :       0.3333    0.2500    0.0000
  band No.  band energies     occupation 
      1      -4.6039      2.00000
      2       1.4208      2.00000
      3       3.4888      2.00000
      4       3.7081      2.00000
      5       7.0597      0.00000
      6       8.6247      0.00000
      7      11.9012      0.00000
      8      12.0921      0.00000

 k-point    30 :       0.4167    0.2500    0.0000
  band No.  band energies     occupation 
      1      -4.0274      2.00000
      2       0.3899      2.00000
      3       2.8559      2.00000
      4       3.6009      2.00000
      5       7.2773      0.00000
      6       9.0973      0.00000
      7      11.7693      0.00000
      8      12.0481      0.00000

 k-point    31 :       0.5000    0.2500    0.0000
  band No.  band energies     occupation 
      1      -3.4020      2.00000
      2      -0.5384      2.00000
      3       2.3086      2.00000
      4       3.6397      2.00000
      5       7.3652      0.00000
[...]
      8      13.4883      0.00000

 k-point    37 :       0.5000    0.3333    0.0000
  band No.  band energies     occupation 
      1      -3.0514      2.00000
      2      -0.7201      2.00000
      3       2.2099      2.00000
      4       3.2902      2.00000
      5       6.9072      0.00000
      6       8.5634      0.00000
      7      13.3043      0.00000
      8      13.3407      0.00000

 k-point    38 :      -0.4167    0.3333    0.0000
  band No.  band energies     occupation 
      1      -2.5812      2.00000
      2      -1.2125      2.00000
      3       1.6299      2.00000
      4       3.4442      2.00000
      5       7.0844      0.00000
      6      10.0115      0.00000
      7      12.9531      0.00000
      8      13.1734      0.00000

 k-point    39 :      -0.3333    0.3333    0.0000
  band No.  band energies     occupation 
      1      -2.8546      2.00000
      2      -0.9260      2.00000
      3       1.4276      2.00000
      4       3.7331      2.00000
      5       7.4125      0.00000
      6      11.6472      0.00000
      7      12.3321      0.00000
      8      12.9361      0.00000

 k-point    40 :       0.4167    0.4167    0.0000
  band No.  band energies     occupation 
      1      -3.1863      2.00000
      2      -0.6165      2.00000
      3       3.1014      2.00000
      4       3.1014      2.00000
      5       6.4154      0.00002
      6       7.0190      0.00000
      7      14.6859      0.00000
      8      14.6859      0.00000

 k-point    41 :       0.5000    0.4167    0.0000
  band No.  band energies     occupation 
      1      -2.5715      2.00000
      2      -1.3056      2.00000
      3       2.6685      2.00000
      4       3.0678      2.00000
      5       6.6163      0.00000
      6       7.1862      0.00000
      7      14.9316      0.00000
      8      15.0356      0.00000

 k-point    42 :      -0.4167    0.4167    0.0000
  band No.  band energies     occupation 
      1      -2.1144      2.00000
      2      -1.7106      2.00000
      3       1.9958      2.00000
      4       3.1850      2.00000
      5       6.7764      0.00000
      6       8.3892      0.00000
      7      14.3852      0.00000
      8      14.9278      0.00000

 k-point    43 :       0.5000    0.5000    0.0000
  band No.  band energies     occupation 
      1      -1.9736      2.00000
      2      -1.9736      2.00000
      3       2.9918      2.00000
      4       2.9918      2.00000
      5       6.5529      0.00000
      6       6.5529      0.00000
      7      15.9791      0.00000
      8      15.9791      0.00000

 k-point    44 :       0.2500    0.1667    0.0833
  band No.  band energies     occupation 
      1      -5.5229      2.00000
      2       3.1213      2.00000
      3       4.2105      2.00000
      4       5.1402      2.00000
      5       8.1862      0.00000
      6       9.4053      0.00000
      7      10.0073      0.00000
      8      10.7603      0.00000

 k-point    45 :       0.3333    0.1667    0.0833
  band No.  band energies     occupation 
      1      -5.0857      2.00000
      2       1.8782      2.00000
      3       3.6782      2.00000
      4       4.8648      2.00000
      5       8.4682      0.00000
      6       9.3711      0.00000
      7      10.4143      0.00000
      8      10.7425      0.00000

 k-point    46 :       0.4167    0.1667    0.0833
  band No.  band energies     occupation 
      1      -4.5093      2.00000
      2       0.5742      2.00000
      3       3.4093      2.00000
      4       4.5368      2.00000
      5       8.5119      0.00000
      6       9.2415      0.00000
      7      10.4718      0.00000
      8      11.3942      0.00000

 k-point    47 :       0.5000    0.1667    0.0833
  band No.  band energies     occupation 
      1      -3.8861      2.00000
      2      -0.5179      2.00000
      3       3.2824      2.00000
      4       4.2898      2.00000
      5       8.4580      0.00000
      6       9.0477      0.00000
      7      10.3893      0.00000
      8      12.6133      0.00000

 k-point    48 :      -0.4167    0.1667    0.0833
  band No.  band energies     occupation 
      1      -3.5467      2.00000
      2      -1.0175      2.00000
      3       3.2470      2.00000
      4       4.1978      2.00000
      5       8.4376      0.00000
      6       8.9609      0.00000
      7      10.3437      0.00000
      8      13.9317      0.00000

 k-point    49 :       0.3333    0.2500    0.0833
  band No.  band energies     occupation 
      1      -4.9305      2.00000
      2       1.9281      2.00000
      3       3.5142      2.00000
      4       4.2186      2.00000
      5       7.6373      0.00000
      6       9.3772      0.00000
      7      10.6711      0.00000
      8      11.4900      0.00000

 k-point    50 :       0.4167    0.2500    0.0833
  band No.  band energies     occupation 
      1      -4.3969      2.00000
      2       0.8758      2.00000
      3       2.9767      2.00000
      4       3.9293      2.00000
      5       7.9703      0.00000
      6       9.5955      0.00000
      7      10.4151      0.00000
      8      11.8758      0.00000

 k-point    51 :       0.5000    0.2500    0.0833
  band No.  band energies     occupation 
      1      -3.7701      2.00000
      2      -0.1811      2.00000
      3       2.6203      2.00000
      4       3.7180      2.00000
      5       8.0913      0.00000
      6      10.0597      0.00000
      7      10.6634      0.00000
      8      11.8572      0.00000

 k-point    52 :      -0.4167    0.2500    0.0833
  band No.  band energies     occupation 
      1      -3.2719      2.00000
      2      -0.8896      2.00000
      3       2.3744      2.00000
      4       3.6998      2.00000
      5       8.2197      0.00000
      6       9.7865      0.00000
      7      11.7481      0.00000
      8      12.1334      0.00000

 k-point    53 :      -0.3333    0.2500    0.0833
  band No.  band energies     occupation 
      1      -3.4080      2.00000
      2      -0.7018      2.00000
      3       2.2556      2.00000
      4       3.8729      2.00000
      5       8.4704      0.00000
      6       9.5965      0.00000
      7      11.6667      0.00000
      8      12.5157      0.00000

 k-point    54 :      -0.2500    0.2500    0.0833
  band No.  band energies     occupation 
      1      -3.9997      2.00000
      2       0.1776      2.00000
      3       2.3290      2.00000
      4       4.1906      2.00000
      5       8.8314      0.00000
      6       9.4543      0.00000
      7      11.1451      0.00000
      8      11.6174      0.00000

 k-point    55 :      -0.1667    0.2500    0.0833
  band No.  band energies     occupation 
      1      -4.6036      2.00000
      2       1.1588      2.00000
      3       2.7441      2.00000
      4       4.5732      2.00000
      5       9.0617      0.00000
      6       9.2134      0.00000
      7      10.5216      0.00000
      8      11.1894      0.00000

 k-point    56 :       0.4167    0.3333    0.0833
  band No.  band energies     occupation 
      1      -4.1186      2.00000
      2       0.6611      2.00000
      3       3.0040      2.00000
      4       3.4325      2.00000
      5       7.2385      0.00000
      6       8.3239      0.00000
      7      11.9183      0.00000
      8      13.0677      0.00000

 k-point    57 :       0.5000    0.3333    0.0833
  band No.  band energies     occupation 
      1      -3.5117      2.00000
      2      -0.1758      2.00000
      3       2.4150      2.00000
      4       3.2149      2.00000
      5       7.5724      0.00000
      6       8.8551      0.00000
      7      11.6171      0.00000
      8      13.4381      0.00000

 k-point    58 :      -0.4167    0.3333    0.0833
  band No.  band energies     occupation 
      1      -2.9209      2.00000
      2      -0.8923      2.00000
      3       1.8929      2.00000
      4       3.2230      2.00000
      5       7.7263      0.00000
      6      10.1495      0.00000
      7      11.3225      0.00000
      8      13.3725      0.00000

 k-point    59 :      -0.3333    0.3333    0.0833
  band No.  band energies     occupation 
      1      -2.8496      2.00000
      2      -0.9636      2.00000
      3       1.6035      2.00000
      4       3.4219      2.00000
      5       7.9837      0.00000
      6      10.9067      0.00000
      7      11.9048      0.00000
      8      12.5918      0.00000

 k-point    60 :      -0.2500    0.3333    0.0833
  band No.  band energies     occupation 
      1      -3.3886      2.00000
      2      -0.3719      2.00000
      3       1.6903      2.00000
      4       3.7677      2.00000
      5       8.3769      0.00000
      6      10.4948      0.00000
      7      11.3570      0.00000
      8      12.6913      0.00000

 k-point    61 :       0.5000    0.4167    0.0833
  band No.  band energies     occupation 
      1      -3.1086      2.00000
      2      -0.6530      2.00000
      3       2.7199      2.00000
      4       2.9165      2.00000
      5       7.0668      0.00000
      6       7.5782      0.00000
      7      13.2968      0.00000
      8      14.6818      0.00000

 k-point    62 :      -0.4167    0.4167    0.0833
  band No.  band energies     occupation 
      1      -2.4782      2.00000
      2      -1.2970      2.00000
      3       2.0894      2.00000
      4       2.8726      2.00000
      5       7.3586      0.00000
      6       8.4869      0.00000
      7      12.9759      0.00000
      8      14.4655      0.00000

 k-point    63 :      -0.3333    0.4167    0.0833
  band No.  band energies     occupation 
      1      -2.3227      2.00000
      2      -1.4110      2.00000
      3       1.5900      2.00000
      4       3.0701      2.00000
      5       7.5966      0.00000
      6      10.0181      0.00000
      7      12.5157      0.00000
      8      12.9070      0.00000

 k-point    64 :      -0.4167    0.5000    0.0833
  band No.  band energies     occupation 
      1      -1.9353      2.00000
      2      -1.9353      2.00000
      3       2.6844      2.00000
      4       2.6844      2.00000
      5       7.1681      0.00000
      6       7.1681      0.00000
      7      14.7728      0.00000
      8      14.7728      0.00000

 k-point    65 :       0.5000    0.3333    0.1667
  band No.  band energies     occupation 
      1      -3.8315      2.00000
      2       0.2025      2.00000
      3       2.2726      2.00000
      4       3.5492      2.00000
      5       8.7013      0.00000
      6       9.5599      0.00000
      7      10.0895      0.00000
      8      12.9207      0.00000

 k-point    66 :      -0.4167    0.3333    0.1667
  band No.  band energies     occupation 
      1      -3.2060      2.00000
      2      -0.5690      2.00000
      3       1.9252      2.00000
      4       3.2113      2.00000
      5       9.0745      0.00000
      6       9.6155      0.00000
      7      10.6074      0.00000
      8      13.3489      0.00000

 k-point    67 :      -0.3333    0.3333    0.1667
  band No.  band energies     occupation 
      1      -2.8445      2.00000
      2      -0.9994      2.00000
      3       1.8322      2.00000
      4       3.0816      2.00000
      5       9.2003      0.00000
      6       9.4097      0.00000
      7      11.9506      0.00000
      8      12.3765      0.00000

 k-point    68 :      -0.4167    0.4167    0.1667
  band No.  band energies     occupation 
      1      -2.8941      2.00000
      2      -0.7973      2.00000
      3       2.0734      2.00000
      4       2.6928      2.00000
      5       8.5296      0.00000
      6       8.9318      0.00000
      7      11.2377      0.00000
      8      14.1734      0.00000

 k-point    69 :      -0.3333    0.4167    0.1667
  band No.  band energies     occupation 
      1      -2.3696      2.00000
      2      -1.3048      2.00000
      3       1.7569      2.00000
      4       2.5383      2.00000
      5       8.8704      0.00000
      6      10.1327      0.00000
      7      10.9648      0.00000
      8      12.3507      0.00000

 k-point    70 :      -0.2500    0.4167    0.1667
  band No.  band energies     occupation 
      1      -2.6016      2.00000
      2      -1.0746      2.00000
      3       1.6318      2.00000
      4       2.7638      2.00000
      5       9.1721      0.00000
      6      10.3236      0.00000
      7      10.8524      0.00000
      8      12.0987      0.00000

 k-point    71 :      -0.3333    0.5000    0.1667
  band No.  band energies     occupation 
      1      -1.8531      2.00000
      2      -1.8531      2.00000
      3       2.1969      2.00000
      4       2.1969      2.00000
      5       8.5953      0.00000
      6       8.5953      0.00000
      7      12.6188      0.00000
      8      12.6188      0.00000

 k-point    72 :      -0.2500    0.5000    0.2500
  band No.  band energies     occupation 
      1      -1.8088      2.00000
      2      -1.8088      2.00000
      3       1.9884      2.00000
      4       1.9884      2.00000
      5      10.1140      0.00000
      6      10.1140      0.00000
      7      10.8589      0.00000
      8      10.8589      0.00000


--------------------------------------------------------------------------------------------------------


 soft charge-density along one line, spin component           1
         0         1         2         3         4         5         6         7         8         9
 total charge-density along one line
 
 pseudopotential strength for first ion, spin component:           1
 18.411  -0.001   0.000   0.000   0.000  -0.000  -0.000  -0.000
 -0.001   0.006  -0.000  -0.000  -0.000   0.000   0.000   0.000
  0.000  -0.000   4.178  -0.000  -0.000  -0.005   0.000   0.000
  0.000  -0.000  -0.000   4.178  -0.000   0.000  -0.005   0.000
  0.000  -0.000  -0.000  -0.000   4.178   0.000   0.000  -0.005
 -0.000   0.000  -0.005   0.000   0.000   0.005  -0.000  -0.000
 -0.000   0.000   0.000  -0.005   0.000  -0.000   0.005  -0.000
 -0.000   0.000   0.000   0.000  -0.005  -0.000  -0.000   0.005
 total augmentation occupancy for first ion, spin component:           1
  1.492  -0.789   0.000   0.000   0.000   0.000   0.000   0.000
 -0.789   0.790   0.000   0.000   0.000   0.000   0.000   0.000
  0.000   0.000   1.032  -0.000   0.000  -0.565   0.000   0.000
  0.000   0.000  -0.000   1.032   0.000   0.000  -0.565   0.000
  0.000   0.000   0.000   0.000   1.032   0.000   0.000  -0.565
  0.000   0.000  -0.565   0.000   0.000   0.366   0.000   0.000
  0.000   0.000   0.000  -0.565   0.000   0.000   0.366   0.000
  0.000   0.000   0.000   0.000  -0.565   0.000   0.000   0.366


------------------------ aborting loop because EDIFF is reached ----------------------------------------


    CHARGE:  cpu time    0.02: real time    0.02
    FORLOC:  cpu time    0.00: real time    0.00
    FORNL :  cpu time    0.03: real time    0.04
    STRESS:  cpu time    0.26: real time    0.28
    FORCOR:  cpu time    0.01: real time    0.01
    FORHAR:  cpu time    0.00: real time    0.00
    MIXING:  cpu time    0.00: real time    0.00
    OFIELD:  cpu time    0.00: real time    0.00

  FORCE on cell =-STRESS in cart. coord.  units (eV):
  Direction    XX          YY          ZZ          XY          YZ          ZX
  --------------------------------------------------------------------------------------
  Alpha Z     3.36955     3.36955     3.36955
  Ewald     -76.22869   -76.22869   -76.22869    -0.00000    -0.00000    -0.00000
  Hartree     4.96606     4.96606     4.96606     0.00000     0.00000     0.00000
  E(xc)     -25.37912   -25.37912   -25.37912    -0.00000    -0.00000    -0.00000
  Local     -29.18411   -29.18411   -29.18411     0.00001     0.00001     0.00001
  n-local    78.83070    80.27405    74.50764     2.23736    -1.32042     0.54463
  augment   -11.65486   -11.65486   -11.65486    -0.00001    -0.00001    -0.00001
  Kinetic    58.97781    56.14197    55.20425     3.57630    -0.63364     1.04476
  Fock        0.00000     0.00000     0.00000     0.00000     0.00000     0.00000
  -------------------------------------------------------------------------------------
  Total       0.53431     0.53431     0.53431    -0.00000    -0.00000     0.00000
  in kB      21.42207    21.42207    21.42207    -0.00000    -0.00000     0.00000
  external pressure =       21.42 kB  Pullay stress =        0.00 kB


 VOLUME and BASIS-vectors are now :
 -----------------------------------------------------------------------------
  energy-cutoff  :      600.00
  volume of cell :       39.96
      direct lattice vectors                 reciprocal lattice vectors
     0.000000000  2.713546265  2.713546265    -0.184260724  0.184260724  0.184260724
     2.713546265  0.000000000  2.713546265     0.184260724 -0.184260724  0.184260724
     2.713546265  2.713546265  0.000000000     0.184260724  0.184260724 -0.184260724

  length of vectors
     3.837533930  3.837533930  3.837533930     0.319148936  0.319148936  0.319148936


 FORCES acting on ions
    electron-ion (+dipol)            ewald-force                    non-local-force                 convergence-correction
 -----------------------------------------------------------------------------------------------
   0.187E-06 0.187E-06 0.179E-06   0.644E-14 0.329E-14 0.635E-14   0.971E-16 0.625E-16 0.937E-16   0.187E-12 0.187E-12 0.190E-12
   -.187E-06 -.187E-06 -.179E-06   -.642E-14 -.344E-14 -.625E-14   -.111E-15 -.694E-16 -.937E-16   -.191E-12 -.192E-12 -.189E-12
 -----------------------------------------------------------------------------------------------
   -.277E-13 0.279E-13 0.401E-13   0.213E-16 -.151E-15 0.102E-15   -.139E-16 -.694E-17 0.000E+00   -.486E-14 -.506E-14 0.707E-15
 
 
 POSITION                                       TOTAL-FORCE (eV/Angst)
 -----------------------------------------------------------------------------------
      0.00000      0.00000      0.00000         0.000000      0.000000      0.000000
      1.35677      1.35677      1.35677        -0.000000     -0.000000     -0.000000
 -----------------------------------------------------------------------------------
    total drift:                               -0.000000      0.000000      0.000000


--------------------------------------------------------------------------------------------------------



  FREE ENERGIE OF THE ION-ELECTRON SYSTEM (eV)
  ---------------------------------------------------
  free  energy   TOTEN  =       -10.84377886 eV

  energy  without entropy=      -10.84377883  energy(sigma->0) =      -10.84377884
 


--------------------------------------------------------------------------------------------------------


    POTLOK:  cpu time    0.01: real time    0.02


--------------------------------------------------------------------------------------------------------


 writing wavefunctions
     LOOP+:  cpu time    6.14: real time    6.88
    4ORBIT:  cpu time    0.00: real time    0.00

 total amount of memory used by VASP on root node    42464. kBytes
========================================================================

   base      :      30000. kBytes
   nonl-proj :       6328. kBytes
   fftplans  :       1025. kBytes
   grid      :       1926. kBytes
   one-center:          6. kBytes
   wavefun   :       3179. kBytes
 
  
  
 General timing and accounting informations for this job:
 ========================================================
  
                  Total CPU time used (sec):        6.588
                            User time (sec):        6.336
                          System time (sec):        0.252
                         Elapsed time (sec):        7.450
  
                   Maximum memory used (kb):       47536.
                   Average memory used (kb):           0.
  
                          Minor page faults:         6968
                          Major page faults:            5
                 Voluntary context switches:          646
