 vasp.5.3.5 31Mar14 (build Jun 01 2017 17:55:53) complex                        
  
 executed on             LinuxIFC date 2020.11.10  15:19:02
 running on    4 total cores
 distrk:  each k-point on    4 cores,    1 groups
 distr:  one band on NCORES_PER_BAND=   1 cores,    4 groups


--------------------------------------------------------------------------------------------------------


 INCAR:
 POTCAR:   PAW_PBE Si 05Jan2001                   
 POTCAR:   PAW_PBE Si 05Jan2001                   
   VRHFIN =Si: s2p2                                                             
   LEXCH  = PE                                                                  
   EATOM  =   103.0669 eV,    7.5752 Ry                                         
                                                                                
   TITEL  = PAW_PBE Si 05Jan2001                                                
   LULTRA =        F    use ultrasoft PP ?                                      
   IUNSCR =        1    unscreen: 0-lin 1-nonlin 2-no                           
   RPACOR =    1.500    partial core radius                                     
   POMASS =   28.085; ZVAL   =    4.000    mass and valenz                      
   RCORE  =    1.900    outmost cutoff radius                                   
   RWIGS  =    2.480; RWIGS  =    1.312    wigner-seitz radius (au A)           
   ENMAX  =  245.345; ENMIN  =  184.009 eV                                      
   ICORE  =        2    local potential                                         
   LCOR   =        T    correct aug charges                                     
   LPAW   =        T    paw PP                                                  
   EAUG   =  322.069                                                            
   DEXC   =    -.007                                                            
   RMAX   =    2.944    core radius for proj-oper                               
   RAUG   =    1.300    factor for augmentation sphere                          
   RDEP   =    1.993    radius for radial grids                                 
   QCUT   =   -4.246; QGAM   =    8.493    optimization parameters              
                                                                                
   Description                                                                  
     l     E      TYP  RCUT    TYP  RCUT                                        
     0   .000     23  1.900                                                     
     0   .000     23  1.900                                                     
     1   .000     23  1.900                                                     
     1   .000     23  1.900                                                     
     2   .000      7  1.900                                                     
  local pseudopotential read in
  partial core-charges read in
  atomic valenz-charges read in
  non local Contribution for L=           0  read in
    real space projection operators read in
  non local Contribution for L=           0  read in
    real space projection operators read in
  non local Contribution for L=           1  read in
    real space projection operators read in
  non local Contribution for L=           1  read in
    real space projection operators read in
    PAW grid and wavefunctions read in
 
   number of l-projection  operators is LMAX  =           4
   number of lm-projection operators is LMMAX =           8
 
 PAW_PBE Si 05Jan2001                   :
 energy of atom  1       EATOM= -103.0669
 kinetic energy error for atom=    0.0003 (will be added to EATOM!!)
 
 
 POSCAR: Si
  positions in direct lattice
  velocities in cartesian coordinates
  No initial velocities read in
 exchange correlation table for  LEXCH =        8
   RHO(1)=    0.500       N(1)  =     2000
   RHO(2)=  100.500       N(2)  =     4000
 


--------------------------------------------------------------------------------------------------------


 ion  position               nearest neighbor table
   1  0.000  0.000  0.000-   2 2.80   2 2.80   2 2.80   2 2.80
   2  0.250  0.250  0.250-   1 2.80   1 2.80   1 2.80   1 2.80
 
  LATTYP: Found a face centered cubic cell.
 ALAT       =     6.4663230149
  
  Lattice vectors:
  
 A1 = (   0.0000000000,   3.2331615075,   3.2331615075)
 A2 = (   3.2331615075,   0.0000000000,   3.2331615075)
 A3 = (   3.2331615075,   3.2331615075,   0.0000000000)


Analysis of symmetry for initial positions (statically):
=====================================================================
 Subroutine PRICEL returns:
 Original cell was already a primitive cell.
 

 Routine SETGRP: Setting up the symmetry group for a 
 face centered cubic supercell.


 Subroutine GETGRP returns: Found 48 space group operations
 (whereof 24 operations were pure point group operations)
 out of a pool of 48 trial point group operations.


The static configuration has the point symmetry T_d .
 The point group associated with its full space group is O_h .


Analysis of symmetry for dynamics (positions and initial velocities):
=====================================================================
 Subroutine PRICEL returns:
 Original cell was already a primitive cell.
 

 Routine SETGRP: Setting up the symmetry group for a 
 face centered cubic supercell.


 Subroutine GETGRP returns: Found 48 space group operations
 (whereof 24 operations were pure point group operations)
 out of a pool of 48 trial point group operations.


The dynamic configuration has the point symmetry T_d .
 The point group associated with its full space group is O_h .


Analysis of constrained symmetry for selective dynamics:
=====================================================================
 Subroutine PRICEL returns:
 Original cell was already a primitive cell.
 

 Routine SETGRP: Setting up the symmetry group for a 
 face centered cubic supercell.


 Subroutine GETGRP returns: Found 48 space group operations
 (whereof 24 operations were pure point group operations)
 out of a pool of 48 trial point group operations.


The constrained configuration has the point symmetry T_d .
 The point group associated with its full space group is O_h .
 
 
 KPOINTS: Gamma centered Monkhorst-Pack           

Automatic generation of k-mesh.
Space group operators:
 irot       det(A)        alpha          n_x          n_y          n_z        tau_x        tau_y        tau_z
    1     1.000000     0.000000     1.000000     0.000000     0.000000     0.000000     0.000000     0.000000
    2     1.000000   120.000000    -0.577350    -0.577350    -0.577350     0.000000     0.000000     0.000000
    3     1.000000   120.000000     0.577350     0.577350     0.577350     0.000000     0.000000     0.000000
    4    -1.000000    90.000000     0.000000     0.000000    -1.000000     0.000000     0.000000     0.000000
    5    -1.000000   180.000000     0.000000     0.707107     0.707107     0.000000     0.000000     0.000000
    6    -1.000000    90.000000     0.000000     1.000000     0.000000     0.000000     0.000000     0.000000
    7     1.000000   180.000000     0.000000     0.000000     1.000000     0.000000     0.000000     0.000000
    8     1.000000   120.000000    -0.577350     0.577350     0.577350     0.000000     0.000000     0.000000
    9     1.000000   120.000000    -0.577350     0.577350    -0.577350     0.000000     0.000000     0.000000
   10    -1.000000    90.000000     0.000000     0.000000     1.000000     0.000000     0.000000     0.000000
   11    -1.000000    90.000000    -1.000000     0.000000     0.000000     0.000000     0.000000     0.000000
   12    -1.000000   180.000000     0.707107     0.000000     0.707107     0.000000     0.000000     0.000000
   13     1.000000   120.000000     0.577350    -0.577350     0.577350     0.000000     0.000000     0.000000
   14     1.000000   120.000000    -0.577350    -0.577350     0.577350     0.000000     0.000000     0.000000
   15     1.000000   180.000000     1.000000     0.000000     0.000000     0.000000     0.000000     0.000000
   16    -1.000000    90.000000     0.000000    -1.000000     0.000000     0.000000     0.000000     0.000000
   17    -1.000000   180.000000     0.707107     0.707107     0.000000     0.000000     0.000000     0.000000
   18    -1.000000    90.000000     1.000000     0.000000     0.000000     0.000000     0.000000     0.000000
   19     1.000000   120.000000     0.577350    -0.577350    -0.577350     0.000000     0.000000     0.000000
   20     1.000000   180.000000     0.000000     1.000000     0.000000     0.000000     0.000000     0.000000
   21     1.000000   120.000000     0.577350     0.577350    -0.577350     0.000000     0.000000     0.000000
   22    -1.000000   180.000000     0.000000    -0.707107     0.707107     0.000000     0.000000     0.000000
   23    -1.000000   180.000000     0.707107    -0.707107     0.000000     0.000000     0.000000     0.000000
   24    -1.000000   180.000000     0.707107     0.000000    -0.707107     0.000000     0.000000     0.000000
   25    -1.000000     0.000000     1.000000     0.000000     0.000000     0.250000     0.250000     0.250000
   26    -1.000000   120.000000    -0.577350    -0.577350    -0.577350     0.250000     0.250000     0.250000
   27    -1.000000   120.000000     0.577350     0.577350     0.577350     0.250000     0.250000     0.250000
   28     1.000000    90.000000     0.000000     0.000000    -1.000000     0.250000     0.250000     0.250000
   29     1.000000   180.000000     0.000000     0.707107     0.707107     0.250000     0.250000     0.250000
   30     1.000000    90.000000     0.000000     1.000000     0.000000     0.250000     0.250000     0.250000
   31    -1.000000   180.000000     0.000000     0.000000     1.000000     0.250000     0.250000     0.250000
   32    -1.000000   120.000000    -0.577350     0.577350     0.577350     0.250000     0.250000     0.250000
   33    -1.000000   120.000000    -0.577350     0.577350    -0.577350     0.250000     0.250000     0.250000
   34     1.000000    90.000000     0.000000     0.000000     1.000000     0.250000     0.250000     0.250000
   35     1.000000    90.000000    -1.000000     0.000000     0.000000     0.250000     0.250000     0.250000
   36     1.000000   180.000000     0.707107     0.000000     0.707107     0.250000     0.250000     0.250000
   37    -1.000000   120.000000     0.577350    -0.577350     0.577350     0.250000     0.250000     0.250000
   38    -1.000000   120.000000    -0.577350    -0.577350     0.577350     0.250000     0.250000     0.250000
   39    -1.000000   180.000000     1.000000     0.000000     0.000000     0.250000     0.250000     0.250000
   40     1.000000    90.000000     0.000000    -1.000000     0.000000     0.250000     0.250000     0.250000
   41     1.000000   180.000000     0.707107     0.707107     0.000000     0.250000     0.250000     0.250000
   42     1.000000    90.000000     1.000000     0.000000     0.000000     0.250000     0.250000     0.250000
   43    -1.000000   120.000000     0.577350    -0.577350    -0.577350     0.250000     0.250000     0.250000
   44    -1.000000   180.000000     0.000000     1.000000     0.000000     0.250000     0.250000     0.250000
   45    -1.000000   120.000000     0.577350     0.577350    -0.577350     0.250000     0.250000     0.250000
   46     1.000000   180.000000     0.000000    -0.707107     0.707107     0.250000     0.250000     0.250000
   47     1.000000   180.000000     0.707107    -0.707107     0.000000     0.250000     0.250000     0.250000
   48     1.000000   180.000000     0.707107     0.000000    -0.707107     0.250000     0.250000     0.250000
 
 Subroutine IBZKPT returns following result:
 ===========================================
 
 Found     72 irreducible k-points:
 
 Following reciprocal coordinates:
            Coordinates               Weight
  0.000000  0.000000  0.000000      1.000000
  0.083333  0.000000  0.000000      8.000000
  0.166667  0.000000  0.000000      8.000000
  0.250000  0.000000  0.000000      8.000000
  0.333333  0.000000  0.000000      8.000000
  0.416667  0.000000  0.000000      8.000000
  0.500000  0.000000  0.000000      4.000000
  0.083333  0.083333  0.000000      6.000000
  0.166667  0.083333  0.000000     24.000000
  0.250000  0.083333  0.000000     24.000000
  0.333333  0.083333  0.000000     24.000000
  0.416667  0.083333  0.000000     24.000000
  0.500000  0.083333  0.000000     24.000000
 -0.416667  0.083333  0.000000     24.000000
 -0.333333  0.083333  0.000000     24.000000
 -0.250000  0.083333  0.000000     24.000000
 -0.166667  0.083333  0.000000     24.000000
 -0.083333  0.083333  0.000000     12.000000
  0.166667  0.166667  0.000000      6.000000
  0.250000  0.166667  0.000000     24.000000
  0.333333  0.166667  0.000000     24.000000
  0.416667  0.166667  0.000000     24.000000
  0.500000  0.166667  0.000000     24.000000
 -0.416667  0.166667  0.000000     24.000000
 -0.333333  0.166667  0.000000     24.000000
 -0.250000  0.166667  0.000000     24.000000
 -0.166667  0.166667  0.000000     12.000000
  0.250000  0.250000  0.000000      6.000000
  0.333333  0.250000  0.000000     24.000000
  0.416667  0.250000  0.000000     24.000000
  0.500000  0.250000  0.000000     24.000000
 -0.416667  0.250000  0.000000     24.000000
 -0.333333  0.250000  0.000000     24.000000
 -0.250000  0.250000  0.000000     12.000000
  0.333333  0.333333  0.000000      6.000000
  0.416667  0.333333  0.000000     24.000000
  0.500000  0.333333  0.000000     24.000000
 -0.416667  0.333333  0.000000     24.000000
 -0.333333  0.333333  0.000000     12.000000
  0.416667  0.416667  0.000000      6.000000
  0.500000  0.416667  0.000000     24.000000
 -0.416667  0.416667  0.000000     12.000000
  0.500000  0.500000  0.000000      3.000000
  0.250000  0.166667  0.083333     24.000000
  0.333333  0.166667  0.083333     48.000000
  0.416667  0.166667  0.083333     48.000000
  0.500000  0.166667  0.083333     48.000000
 -0.416667  0.166667  0.083333     24.000000
  0.333333  0.250000  0.083333     24.000000
  0.416667  0.250000  0.083333     48.000000
  0.500000  0.250000  0.083333     48.000000
 -0.416667  0.250000  0.083333     48.000000
 -0.333333  0.250000  0.083333     48.000000
 -0.250000  0.250000  0.083333     48.000000
 -0.166667  0.250000  0.083333     24.000000
  0.416667  0.333333  0.083333     24.000000
  0.500000  0.333333  0.083333     48.000000
 -0.416667  0.333333  0.083333     48.000000
 -0.333333  0.333333  0.083333     48.000000
 -0.250000  0.333333  0.083333     24.000000
  0.500000  0.416667  0.083333     24.000000
 -0.416667  0.416667  0.083333     48.000000
 -0.333333  0.416667  0.083333     24.000000
 -0.416667  0.500000  0.083333     12.000000
  0.500000  0.333333  0.166667     24.000000
 -0.416667  0.333333  0.166667     48.000000
 -0.333333  0.333333  0.166667     24.000000
 -0.416667  0.416667  0.166667     24.000000
 -0.333333  0.416667  0.166667     48.000000
 -0.250000  0.416667  0.166667     24.000000
 -0.333333  0.500000  0.166667     12.000000
 -0.250000  0.500000  0.250000      6.000000
 
 Following cartesian coordinates:
            Coordinates               Weight
  0.000000  0.000000  0.000000      1.000000
 -0.083333  0.083333  0.083333      8.000000
 -0.166667  0.166667  0.166667      8.000000
 -0.250000  0.250000  0.250000      8.000000
 -0.333333  0.333333  0.333333      8.000000
 -0.416667  0.416667  0.416667      8.000000
 -0.500000  0.500000  0.500000      4.000000
  0.000000  0.000000  0.166667      6.000000
 -0.083333  0.083333  0.250000     24.000000
 -0.166667  0.166667  0.333333     24.000000
 -0.250000  0.250000  0.416667     24.000000
 -0.333333  0.333333  0.500000     24.000000
 -0.416667  0.416667  0.583333     24.000000
  0.500000 -0.500000 -0.333333     24.000000
  0.416667 -0.416667 -0.250000     24.000000
  0.333333 -0.333333 -0.166667     24.000000
  0.250000 -0.250000 -0.083333     24.000000
  0.166667 -0.166667  0.000000     12.000000
  0.000000  0.000000  0.333333      6.000000
 -0.083333  0.083333  0.416667     24.000000
 -0.166667  0.166667  0.500000     24.000000
 -0.250000  0.250000  0.583333     24.000000
 -0.333333  0.333333  0.666667     24.000000
  0.583333 -0.583333 -0.250000     24.000000
  0.500000 -0.500000 -0.166667     24.000000
  0.416667 -0.416667 -0.083333     24.000000
  0.333333 -0.333333  0.000000     12.000000
  0.000000  0.000000  0.500000      6.000000
 -0.083333  0.083333  0.583333     24.000000
 -0.166667  0.166667  0.666667     24.000000
 -0.250000  0.250000  0.750000     24.000000
  0.666667 -0.666667 -0.166667     24.000000
  0.583333 -0.583333 -0.083333     24.000000
  0.500000 -0.500000  0.000000     12.000000
  0.000000  0.000000  0.666667      6.000000
 -0.083333  0.083333  0.750000     24.000000
 -0.166667  0.166667  0.833333     24.000000
  0.750000 -0.750000 -0.083333     24.000000
  0.666667 -0.666667  0.000000     12.000000
  0.000000  0.000000  0.833333      6.000000
 -0.083333  0.083333  0.916667     24.000000
  0.833333 -0.833333  0.000000     12.000000
  0.000000  0.000000  1.000000      3.000000
  0.000000  0.166667  0.333333     24.000000
 -0.083333  0.250000  0.416667     48.000000
 -0.166667  0.333333  0.500000     48.000000
 -0.250000  0.416667  0.583333     48.000000
  0.666667 -0.500000 -0.333333     24.000000
  0.000000  0.166667  0.500000     24.000000
 -0.083333  0.250000  0.583333     48.000000
 -0.166667  0.333333  0.666667     48.000000
  0.750000 -0.583333 -0.250000     48.000000
  0.666667 -0.500000 -0.166667     48.000000
  0.583333 -0.416667 -0.083333     48.000000
  0.500000 -0.333333  0.000000     24.000000
 -0.000000  0.166667  0.666667     24.000000
 -0.083333  0.250000  0.750000     48.000000
  0.833333 -0.666667 -0.166667     48.000000
  0.750000 -0.583333 -0.083333     48.000000
  0.666667 -0.500000  0.000000     24.000000
  0.000000  0.166667  0.833333     24.000000
  0.916667 -0.750000 -0.083333     48.000000
  0.833333 -0.666667  0.000000     24.000000
  1.000000 -0.833333  0.000000     12.000000
  0.000000  0.333333  0.666667     24.000000
  0.916667 -0.583333 -0.250000     48.000000
  0.833333 -0.500000 -0.166667     24.000000
  1.000000 -0.666667 -0.166667     24.000000
  0.916667 -0.583333 -0.083333     48.000000
  0.833333 -0.500000  0.000000     24.000000
  1.000000 -0.666667  0.000000     12.000000
  1.000000 -0.500000  0.000000      6.000000
 


--------------------------------------------------------------------------------------------------------




 Dimension of arrays:
   k-points           NKPTS =     72   k-points in BZ     NKDIM =     72   number of bands    NBANDS=      8
   number of dos      NEDOS =    301   number of ions     NIONS =      2
   non local maximal  LDIM  =      4   non local SUM 2l+1 LMDIM =      8
   total plane-waves  NPLWV =  21952
   max r-space proj   IRMAX =      1   max aug-charges    IRDMAX=  11057
   dimension x,y,z NGX =    28 NGY =   28 NGZ =   28
   dimension x,y,z NGXF=    56 NGYF=   56 NGZF=   56
   support grid    NGXF=    56 NGYF=   56 NGZF=   56
   ions per type =               2
 NGX,Y,Z   is equivalent  to a cutoff of  10.18, 10.18, 10.18 a.u.
 NGXF,Y,Z  is equivalent  to a cutoff of  20.36, 20.36, 20.36 a.u.


 I would recommend the setting:
   dimension x,y,z NGX =    27 NGY =   27 NGZ =   27
 SYSTEM =  Si
 POSCAR =  Si

 Startparameter for this run:
   NWRITE =      2    write-flag & timer
   PREC   = normal    normal or accurate (medium, high low for compatibility)
   ISTART =      0    job   : 0-new  1-cont  2-samecut
   ICHARG =      2    charge: 1-file 2-atom 10-const
   ISPIN  =      1    spin polarized calculation?
   LNONCOLLINEAR =      F non collinear calculations
   LSORBIT =      F    spin-orbit coupling
   INIWAV =      1    electr: 0-lowe 1-rand  2-diag
   LASPH  =      F    aspherical Exc in radial PAW
   METAGGA=      F    non-selfconsistent MetaGGA calc.

 Electronic Relaxation 1
   ENCUT  =  600.0 eV  44.10 Ry    6.64 a.u.   9.13  9.13  9.13*2*pi/ulx,y,z
   ENINI  =  600.0     initial cutoff
   ENAUG  = 1200.0 eV  augmentation charge cutoff
   NELM   =    500;   NELMIN=  2; NELMDL= -5     # of ELM steps 
   EDIFF  = 0.1E-09   stopping-criterion for ELM
   LREAL  =      F    real-space projection
   NLSPLINE    = F    spline interpolate recip. space projectors
   LCOMPAT=      F    compatible to vasp.4.4
   GGA_COMPAT  = T    GGA compatible to vasp.4.4-vasp.4.6
   LMAXPAW     = -100 max onsite density
   LMAXMIX     =    2 max onsite mixed and CHGCAR
   VOSKOWN=      0    Vosko Wilk Nusair interpolation
   ROPT   =    0.00000
 Ionic relaxation
   EDIFFG = 0.1E-08   stopping-criterion for IOM
   NSW    =      0    number of steps for IOM
   NBLOCK =      1;   KBLOCK =      1    inner block; outer block 
   IBRION =     -1    ionic relax: 0-MD 1-quasi-New 2-CG
   NFREE  =      0    steps in history (QN), initial steepest desc. (CG)
   ISIF   =      2    stress and relaxation
   IWAVPR =     10    prediction:  0-non 1-charg 2-wave 3-comb
   ISYM   =      2    0-nonsym 1-usesym 2-fastsym
   LCORR  =      T    Harris-Foulkes like correction to forces

   POTIM  = 0.5000    time-step for ionic-motion
   TEIN   =    0.0    initial temperature
   TEBEG  =    0.0;   TEEND  =   0.0 temperature during run
   SMASS  =  -3.00    Nose mass-parameter (am)
   estimated Nose-frequenzy (Omega)   =  0.10E-29 period in steps =****** mass=  -0.478E-27a.u.
   SCALEE = 1.0000    scale energy and forces
   NPACO  =    256;   APACO  = 16.0  distance and # of slots for P.C.
   PSTRESS=    0.0 pullay stress

  Mass of Ions in am
   POMASS =  28.09
  Ionic Valenz
   ZVAL   =   4.00
  Atomic Wigner-Seitz radii
   RWIGS  =  -1.00
  virtual crystal weights 
   VCA    =   1.00
   NELECT =       8.0000    total number of electrons
   NUPDOWN=      -1.0000    fix difference up-down

 DOS related values:
   EMIN   =  10.00;   EMAX   =-10.00  energy-range for DOS
   EFERMI =   0.00
   ISMEAR =    -1;   SIGMA  =   0.03  broadening in eV -4-tet -1-fermi 0-gaus

 Electronic relaxation 2 (details)
   IALGO  =     38    algorithm
   LDIAG  =      T    sub-space diagonalisation (order eigenvalues)
   LSUBROT=      F    optimize rotation matrix (better conditioning)
   TURBO    =      0    0=normal 1=particle mesh
   IRESTART =      0    0=no restart 2=restart with 2 vectors
   NREBOOT  =      0    no. of reboots
   NMIN     =      0    reboot dimension
   EREF     =   0.00    reference energy to select bands
   IMIX   =      4    mixing-type and parameters
     AMIX     =   0.40;   BMIX     =  1.00
     AMIX_MAG =   1.60;   BMIX_MAG =  1.00
     AMIN     =   0.10
     WC   =   100.;   INIMIX=   1;  MIXPRE=   1;  MAXMIX= -45

 Intra band minimization:
   WEIMIN = 0.0000     energy-eigenvalue tresh-hold
   EBREAK =  0.31E-11  absolut break condition
   DEPER  =   0.30     relativ break condition  

   TIME   =   0.40     timestep for ELM

  volume/ion in A,a.u.               =      33.80       228.08
  Fermi-wavevector in a.u.,A,eV,Ry     =   0.803774  1.518913  8.790086  0.646053
  Thomas-Fermi vector in A             =   1.911705
 
 Write flags
   LWAVE  =      T    write WAVECAR
   LCHARG =      T    write CHGCAR
   LVTOT  =      F    write LOCPOT, total local potential
   LVHAR  =      F    write LOCPOT, Hartree potential only
   LELF   =      F    write electronic localiz. function (ELF)
   LORBIT =      0    0 simple, 1 ext, 2 COOP (PROOUT)


 Dipole corrections
   LMONO  =      F    monopole corrections only (constant potential shift)
   LDIPOL =      F    correct potential (dipole corrections)
   IDIPOL =      0    1-x, 2-y, 3-z, 4-all directions 
   EPSILON=  1.0000000 bulk dielectric constant

 Exchange correlation treatment:
   GGA     =    PE    GGA type
   LEXCH   =     8    internal setting for exchange type
   VOSKOWN=      0    Vosko Wilk Nusair interpolation
   LHFCALC =     F    Hartree Fock is set to
   LHFONE  =     F    Hartree Fock one center treatment
   AEXX    =    0.0000 exact exchange contribution

 Linear response parameters
   LEPSILON=     F    determine dielectric tensor
   LRPA    =     F    only Hartree local field effects (RPA)
   LNABLA  =     F    use nabla operator in PAW spheres
   LVEL    =     F    velocity operator in full k-point grid
   LINTERFAST=   F  fast interpolation
   KINTER  =     0    interpolate to denser k-point grid
   CSHIFT  =0.1000    complex shift for real part using Kramers Kronig
   OMEGAMAX=  -1.0    maximum frequency
   DEG_THRESHOLD= 0.2000000E-02 threshold for treating states as degnerate
   RTIME   =    0.100 relaxation time in fs

 Orbital magnetization related:
   ORBITALMAG=     F  switch on orbital magnetization
   LCHIMAG   =     F  perturbation theory with respect to B field
   DQ        =  0.001000  dq finite difference perturbation B field



--------------------------------------------------------------------------------------------------------


 Static calculation
 charge density and potential will be updated during run
 non-spin polarized calculation
 Variant of blocked Davidson
 Davidson routine will perform the subspace rotation
 perform sub-space diagonalisation
    after iterative eigenvector-optimisation
 modified Broyden-mixing scheme, WC =      100.0
 initial mixing is a Kerker type mixing with AMIX =  0.4000 and BMIX =      1.0000
 Hartree-type preconditioning will be used
 using additional bands            4
 reciprocal scheme for non local part
 use partial core corrections
 calculate Harris-corrections to forces 
   (improved forces if not selfconsistent)
 use gradient corrections 
 use of overlap-Matrix (Vanderbilt PP)
 Fermi-smearing in eV        SIGMA  =   0.03


--------------------------------------------------------------------------------------------------------


  energy-cutoff  :      600.00
  volume of cell :       67.59
      direct lattice vectors                 reciprocal lattice vectors
     0.000000000  3.233161507  3.233161507    -0.154647394  0.154647394  0.154647394
     3.233161507  0.000000000  3.233161507     0.154647394 -0.154647394  0.154647394
     3.233161507  3.233161507  0.000000000     0.154647394  0.154647394 -0.154647394

  length of vectors
     4.572380853  4.572380853  4.572380853     0.267857143  0.267857143  0.267857143


 
 k-points in units of 2pi/SCALE and weight: Gamma centered Monkhorst-Pack           
   0.00000000  0.00000000  0.00000000       0.001
  -0.08333333  0.08333333  0.08333333       0.005
  -0.16666667  0.16666667  0.16666667       0.005
  -0.25000000  0.25000000  0.25000000       0.005
  -0.33333333  0.33333333  0.33333333       0.005
  -0.41666667  0.41666667  0.41666667       0.005
  -0.50000000  0.50000000  0.50000000       0.002
   0.00000000  0.00000000  0.16666667       0.003
  -0.08333333  0.08333333  0.25000000       0.014
  -0.16666667  0.16666667  0.33333333       0.014
  -0.25000000  0.25000000  0.41666667       0.014
  -0.33333333  0.33333333  0.50000000       0.014
  -0.41666667  0.41666667  0.58333333       0.014
   0.50000000 -0.50000000 -0.33333333       0.014
   0.41666667 -0.41666667 -0.25000000       0.014
   0.33333333 -0.33333333 -0.16666667       0.014
   0.25000000 -0.25000000 -0.08333333       0.014
   0.16666667 -0.16666667  0.00000000       0.007
   0.00000000  0.00000000  0.33333333       0.003
  -0.08333333  0.08333333  0.41666667       0.014
  -0.16666667  0.16666667  0.50000000       0.014
  -0.25000000  0.25000000  0.58333333       0.014
  -0.33333333  0.33333333  0.66666667       0.014
   0.58333333 -0.58333333 -0.25000000       0.014
   0.50000000 -0.50000000 -0.16666667       0.014
   0.41666667 -0.41666667 -0.08333333       0.014
   0.33333333 -0.33333333  0.00000000       0.007
   0.00000000  0.00000000  0.50000000       0.003
  -0.08333333  0.08333333  0.58333333       0.014
  -0.16666667  0.16666667  0.66666667       0.014
  -0.25000000  0.25000000  0.75000000       0.014
   0.66666667 -0.66666667 -0.16666667       0.014
   0.58333333 -0.58333333 -0.08333333       0.014
   0.50000000 -0.50000000  0.00000000       0.007
   0.00000000  0.00000000  0.66666667       0.003
  -0.08333333  0.08333333  0.75000000       0.014
  -0.16666667  0.16666667  0.83333333       0.014
   0.75000000 -0.75000000 -0.08333333       0.014
   0.66666667 -0.66666667  0.00000000       0.007
   0.00000000  0.00000000  0.83333333       0.003
  -0.08333333  0.08333333  0.91666667       0.014
   0.83333333 -0.83333333  0.00000000       0.007
   0.00000000  0.00000000  1.00000000       0.002
   0.00000000  0.16666667  0.33333333       0.014
  -0.08333333  0.25000000  0.41666667       0.028
  -0.16666667  0.33333333  0.50000000       0.028
  -0.25000000  0.41666667  0.58333333       0.028
   0.66666667 -0.50000000 -0.33333333       0.014
   0.00000000  0.16666667  0.50000000       0.014
  -0.08333333  0.25000000  0.58333333       0.028
  -0.16666667  0.33333333  0.66666667       0.028
   0.75000000 -0.58333333 -0.25000000       0.028
   0.66666667 -0.50000000 -0.16666667       0.028
   0.58333333 -0.41666667 -0.08333333       0.028
   0.50000000 -0.33333333  0.00000000       0.014
  -0.00000000  0.16666667  0.66666667       0.014
  -0.08333333  0.25000000  0.75000000       0.028
   0.83333333 -0.66666667 -0.16666667       0.028
   0.75000000 -0.58333333 -0.08333333       0.028
   0.66666667 -0.50000000  0.00000000       0.014
   0.00000000  0.16666667  0.83333333       0.014
   0.91666667 -0.75000000 -0.08333333       0.028
   0.83333333 -0.66666667  0.00000000       0.014
   1.00000000 -0.83333333  0.00000000       0.007
   0.00000000  0.33333333  0.66666667       0.014
   0.91666667 -0.58333333 -0.25000000       0.028
   0.83333333 -0.50000000 -0.16666667       0.014
   1.00000000 -0.66666667 -0.16666667       0.014
   0.91666667 -0.58333333 -0.08333333       0.028
   0.83333333 -0.50000000  0.00000000       0.014
   1.00000000 -0.66666667  0.00000000       0.007
   1.00000000 -0.50000000  0.00000000       0.003
 
 k-points in reciprocal lattice and weights: Gamma centered Monkhorst-Pack           
   0.00000000  0.00000000  0.00000000       0.001
   0.08333333  0.00000000  0.00000000       0.005
   0.16666667  0.00000000  0.00000000       0.005
   0.25000000  0.00000000  0.00000000       0.005
   0.33333333  0.00000000  0.00000000       0.005
   0.41666667  0.00000000  0.00000000       0.005
   0.50000000  0.00000000  0.00000000       0.002
   0.08333333  0.08333333  0.00000000       0.003
   0.16666667  0.08333333  0.00000000       0.014
   0.25000000  0.08333333  0.00000000       0.014
   0.33333333  0.08333333  0.00000000       0.014
   0.41666667  0.08333333  0.00000000       0.014
   0.50000000  0.08333333  0.00000000       0.014
  -0.41666667  0.08333333  0.00000000       0.014
  -0.33333333  0.08333333  0.00000000       0.014
  -0.25000000  0.08333333  0.00000000       0.014
  -0.16666667  0.08333333  0.00000000       0.014
  -0.08333333  0.08333333  0.00000000       0.007
   0.16666667  0.16666667  0.00000000       0.003
   0.25000000  0.16666667  0.00000000       0.014
   0.33333333  0.16666667  0.00000000       0.014
   0.41666667  0.16666667  0.00000000       0.014
   0.50000000  0.16666667  0.00000000       0.014
  -0.41666667  0.16666667  0.00000000       0.014
  -0.33333333  0.16666667  0.00000000       0.014
  -0.25000000  0.16666667  0.00000000       0.014
  -0.16666667  0.16666667  0.00000000       0.007
   0.25000000  0.25000000  0.00000000       0.003
   0.33333333  0.25000000  0.00000000       0.014
   0.41666667  0.25000000  0.00000000       0.014
   0.50000000  0.25000000  0.00000000       0.014
  -0.41666667  0.25000000  0.00000000       0.014
  -0.33333333  0.25000000  0.00000000       0.014
  -0.25000000  0.25000000  0.00000000       0.007
   0.33333333  0.33333333  0.00000000       0.003
   0.41666667  0.33333333  0.00000000       0.014
   0.50000000  0.33333333  0.00000000       0.014
  -0.41666667  0.33333333  0.00000000       0.014
  -0.33333333  0.33333333  0.00000000       0.007
   0.41666667  0.41666667  0.00000000       0.003
   0.50000000  0.41666667  0.00000000       0.014
  -0.41666667  0.41666667  0.00000000       0.007
   0.50000000  0.50000000  0.00000000       0.002
   0.25000000  0.16666667  0.08333333       0.014
   0.33333333  0.16666667  0.08333333       0.028
   0.41666667  0.16666667  0.08333333       0.028
   0.50000000  0.16666667  0.08333333       0.028
  -0.41666667  0.16666667  0.08333333       0.014
   0.33333333  0.25000000  0.08333333       0.014
   0.41666667  0.25000000  0.08333333       0.028
   0.50000000  0.25000000  0.08333333       0.028
  -0.41666667  0.25000000  0.08333333       0.028
  -0.33333333  0.25000000  0.08333333       0.028
  -0.25000000  0.25000000  0.08333333       0.028
  -0.16666667  0.25000000  0.08333333       0.014
   0.41666667  0.33333333  0.08333333       0.014
   0.50000000  0.33333333  0.08333333       0.028
  -0.41666667  0.33333333  0.08333333       0.028
  -0.33333333  0.33333333  0.08333333       0.028
  -0.25000000  0.33333333  0.08333333       0.014
   0.50000000  0.41666667  0.08333333       0.014
  -0.41666667  0.41666667  0.08333333       0.028
  -0.33333333  0.41666667  0.08333333       0.014
  -0.41666667  0.50000000  0.08333333       0.007
   0.50000000  0.33333333  0.16666667       0.014
  -0.41666667  0.33333333  0.16666667       0.028
  -0.33333333  0.33333333  0.16666667       0.014
  -0.41666667  0.41666667  0.16666667       0.014
  -0.33333333  0.41666667  0.16666667       0.028
  -0.25000000  0.41666667  0.16666667       0.014
  -0.33333333  0.50000000  0.16666667       0.007
  -0.25000000  0.50000000  0.25000000       0.003
 
 position of ions in fractional coordinates (direct lattice) 
   0.00000000  0.00000000  0.00000000
   0.25000000  0.25000000  0.25000000
 
 position of ions in cartesian coordinates  (Angst):
   0.00000000  0.00000000  0.00000000
   1.61658075  1.61658075  1.61658075
 


--------------------------------------------------------------------------------------------------------


 k-point  1 :   0.0000 0.0000 0.0000  plane waves:    2229
 k-point  2 :   0.0833 0.0000 0.0000  plane waves:    2226
 k-point  3 :   0.1667 0.0000 0.0000  plane waves:    2244
 k-point  4 :   0.2500 0.0000 0.0000  plane waves:    2238
 k-point  5 :   0.3333 0.0000 0.0000  plane waves:    2247
 k-point  6 :   0.4167 0.0000 0.0000  plane waves:    2253
 k-point  7 :   0.5000 0.0000 0.0000  plane waves:    2276
 k-point  8 :   0.0833 0.0833 0.0000  plane waves:    2237
 k-point  9 :   0.1667 0.0833 0.0000  plane waves:    2243
 k-point 10 :   0.2500 0.0833 0.0000  plane waves:    2244
 k-point 11 :   0.3333 0.0833 0.0000  plane waves:    2253
 k-point 12 :   0.4167 0.0833 0.0000  plane waves:    2252
 k-point 13 :   0.5000 0.0833 0.0000  plane waves:    2265
 k-point 14 :  -0.4167 0.0833 0.0000  plane waves:    2262
 k-point 15 :  -0.3333 0.0833 0.0000  plane waves:    2255
 k-point 16 :  -0.2500 0.0833 0.0000  plane waves:    2238
 k-point 17 :  -0.1667 0.0833 0.0000  plane waves:    2243
 k-point 18 :  -0.0833 0.0833 0.0000  plane waves:    2241
 k-point 19 :   0.1667 0.1667 0.0000  plane waves:    2249
 k-point 20 :   0.2500 0.1667 0.0000  plane waves:    2243
 k-point 21 :   0.3333 0.1667 0.0000  plane waves:    2251
 k-point 22 :   0.4167 0.1667 0.0000  plane waves:    2253
 k-point 23 :   0.5000 0.1667 0.0000  plane waves:    2261
 k-point 24 :  -0.4167 0.1667 0.0000  plane waves:    2254
 k-point 25 :  -0.3333 0.1667 0.0000  plane waves:    2256
 k-point 26 :  -0.2500 0.1667 0.0000  plane waves:    2250
 k-point 27 :  -0.1667 0.1667 0.0000  plane waves:    2243
 k-point 28 :   0.2500 0.2500 0.0000  plane waves:    2269
 k-point 29 :   0.3333 0.2500 0.0000  plane waves:    2255
 k-point 30 :   0.4167 0.2500 0.0000  plane waves:    2261
 k-point 31 :   0.5000 0.2500 0.0000  plane waves:    2265
 k-point 32 :  -0.4167 0.2500 0.0000  plane waves:    2257
 k-point 33 :  -0.3333 0.2500 0.0000  plane waves:    2265
 k-point 34 :  -0.2500 0.2500 0.0000  plane waves:    2269
 k-point 35 :   0.3333 0.3333 0.0000  plane waves:    2253
 k-point 36 :   0.4167 0.3333 0.0000  plane waves:    2260
 k-point 37 :   0.5000 0.3333 0.0000  plane waves:    2268
 k-point 38 :  -0.4167 0.3333 0.0000  plane waves:    2264
 k-point 39 :  -0.3333 0.3333 0.0000  plane waves:    2285
 k-point 40 :   0.4167 0.4167 0.0000  plane waves:    2257
 k-point 41 :   0.5000 0.4167 0.0000  plane waves:    2256
 k-point 42 :  -0.4167 0.4167 0.0000  plane waves:    2263
 k-point 43 :   0.5000 0.5000 0.0000  plane waves:    2272
 k-point 44 :   0.2500 0.1667 0.0833  plane waves:    2239
 k-point 45 :   0.3333 0.1667 0.0833  plane waves:    2252
 k-point 46 :   0.4167 0.1667 0.0833  plane waves:    2259
 k-point 47 :   0.5000 0.1667 0.0833  plane waves:    2260
 k-point 48 :  -0.4167 0.1667 0.0833  plane waves:    2258
 k-point 49 :   0.3333 0.2500 0.0833  plane waves:    2249
 k-point 50 :   0.4167 0.2500 0.0833  plane waves:    2260
 k-point 51 :   0.5000 0.2500 0.0833  plane waves:    2265
 k-point 52 :  -0.4167 0.2500 0.0833  plane waves:    2257
 k-point 53 :  -0.3333 0.2500 0.0833  plane waves:    2259
 k-point 54 :  -0.2500 0.2500 0.0833  plane waves:    2259
 k-point 55 :  -0.1667 0.2500 0.0833  plane waves:    2255
 k-point 56 :   0.4167 0.3333 0.0833  plane waves:    2258
 k-point 57 :   0.5000 0.3333 0.0833  plane waves:    2258
 k-point 58 :  -0.4167 0.3333 0.0833  plane waves:    2253
 k-point 59 :  -0.3333 0.3333 0.0833  plane waves:    2258
 k-point 60 :  -0.2500 0.3333 0.0833  plane waves:    2264
 k-point 61 :   0.5000 0.4167 0.0833  plane waves:    2259
 k-point 62 :  -0.4167 0.4167 0.0833  plane waves:    2253
 k-point 63 :  -0.3333 0.4167 0.0833  plane waves:    2258
 k-point 64 :  -0.4167 0.5000 0.0833  plane waves:    2250
 k-point 65 :   0.5000 0.3333 0.1667  plane waves:    2246
 k-point 66 :  -0.4167 0.3333 0.1667  plane waves:    2257
 k-point 67 :  -0.3333 0.3333 0.1667  plane waves:    2248
 k-point 68 :  -0.4167 0.4167 0.1667  plane waves:    2249
 k-point 69 :  -0.3333 0.4167 0.1667  plane waves:    2251
 k-point 70 :  -0.2500 0.4167 0.1667  plane waves:    2254
 k-point 71 :  -0.3333 0.5000 0.1667  plane waves:    2266
 k-point 72 :  -0.2500 0.5000 0.2500  plane waves:    2244

 maximum and minimum number of plane-waves per node :      2285     2226

 maximum number of plane-waves:      2285
 maximum index in each direction: 
   IXMAX=    9   IYMAX=    9   IZMAX=    9
   IXMIN=   -9   IYMIN=   -9   IZMIN=   -9

 WARNING: aliasing errors must be expected set NGX to  38 to avoid them
 WARNING: aliasing errors must be expected set NGY to  38 to avoid them
 WARNING: aliasing errors must be expected set NGZ to  38 to avoid them
 aliasing errors are usually negligible using standard VASP settings
 and one can safely disregard these warnings

 serial   3D FFT for wavefunctions
 parallel 3D FFT for charge:
    minimum data exchange during FFTs selected (reduces bandwidth)


 total amount of memory used by VASP on root node    50597. kBytes
========================================================================

   base      :      30000. kBytes
   nonl-proj :      10616. kBytes
   fftplans  :       1619. kBytes
   grid      :       3048. kBytes
   one-center:          6. kBytes
   wavefun   :       5308. kBytes
 
     INWAV:  cpu time    0.00: real time    0.00
 Broyden mixing: mesh for mixing (old mesh)
   NGX = 19   NGY = 19   NGZ = 19
  (NGX  = 56   NGY  = 56   NGZ  = 56)
  gives a total of   6859 points

 initial charge density was supplied:
 charge density of overlapping atoms calculated
 number of electron       8.0000000 magnetization 
 keeping initial charge density in first step


--------------------------------------------------------------------------------------------------------


 Maximum index for augmentation-charges         2631 (set IRDMAX)


--------------------------------------------------------------------------------------------------------


 First call to EWALD:  gamma=   0.435
 Maximum number of real-space cells 3x 3x 3
 Maximum number of reciprocal cells 3x 3x 3

 FEWALD executed in parallel
    FEWALD:  cpu time    0.00: real time    0.00


----------------------------------------- Iteration    1(   1)  ---------------------------------------


    POTLOK:  cpu time    0.02: real time    0.03
    SETDIJ:  cpu time    0.00: real time    0.00
     EDDAV:  cpu time    0.49: real time    0.49
       DOS:  cpu time    0.00: real time    0.00
    --------------------------------------------
      LOOP:  cpu time    0.52: real time    0.52

 eigenvalue-minimisations  :  1152
 total energy-change (2. order) : 0.9161091E+01  (-0.3103224E+03)
 number of electron       8.0000000 magnetization 
 augmentation part        8.0000000 magnetization 

 Free energy of the ion-electron system (eV)
  ---------------------------------------------------
  alpha Z        PSCENC =         1.99205638
  Ewald energy   TEWEN  =      -191.93287089
  -Hartree energ DENC   =       -20.20446501
  -exchange      EXHF   =         0.00000000
  -V(xc)+E(xc)   XCENC  =       -20.32253041
  PAW double counting   =        65.95520812      -30.76852678
  entropy T*S    EENTRO =        -0.00238705
  eigenvalues    EBANDS =        -1.68851209
  atomic energy  EATOM  =       206.13311910
  ---------------------------------------------------
  free energy    TOTEN  =         9.16109137 eV

  energy without entropy =        9.16347842  energy(sigma->0) =        9.16228489


--------------------------------------------------------------------------------------------------------




----------------------------------------- Iteration    1(   2)  ---------------------------------------


     EDDAV:  cpu time    0.70: real time    0.70
       DOS:  cpu time    0.00: real time    0.00
    --------------------------------------------
      LOOP:  cpu time    0.70: real time    0.71

 eigenvalue-minimisations  :  1768
 total energy-change (2. order) :-0.1777702E+02  (-0.1725457E+02)
 number of electron       8.0000000 magnetization 
 augmentation part        8.0000000 magnetization 

 Free energy of the ion-electron system (eV)
  ---------------------------------------------------
  alpha Z        PSCENC =         1.99205638
  Ewald energy   TEWEN  =      -191.93287089
  -Hartree energ DENC   =       -20.20446501
  -exchange      EXHF   =         0.00000000
  -V(xc)+E(xc)   XCENC  =       -20.32253041
  PAW double counting   =        65.95520812      -30.76852678
  entropy T*S    EENTRO =        -0.00037877
  eigenvalues    EBANDS =       -19.46753995
  atomic energy  EATOM  =       206.13311910
  ---------------------------------------------------
  free energy    TOTEN  =        -8.61592821 eV

  energy without entropy =       -8.61554944  energy(sigma->0) =       -8.61573882


--------------------------------------------------------------------------------------------------------




----------------------------------------- Iteration    1(   3)  ---------------------------------------


     EDDAV:  cpu time    0.65: real time    0.65
       DOS:  cpu time    0.00: real time    0.00
    --------------------------------------------
      LOOP:  cpu time    0.65: real time    0.66

 eigenvalue-minimisations  :  1608
 total energy-change (2. order) :-0.3805525E+00  (-0.3770055E+00)
 number of electron       8.0000000 magnetization 
 augmentation part        8.0000000 magnetization 

 Free energy of the ion-electron system (eV)
  ---------------------------------------------------
  alpha Z        PSCENC =         1.99205638
  Ewald energy   TEWEN  =      -191.93287089
  -Hartree energ DENC   =       -20.20446501
  -exchange      EXHF   =         0.00000000
  -V(xc)+E(xc)   XCENC  =       -20.32253041
  PAW double counting   =        65.95520812      -30.76852678
  entropy T*S    EENTRO =        -0.00038215
  eigenvalues    EBANDS =       -19.84808902
  atomic energy  EATOM  =       206.13311910
  ---------------------------------------------------
  free energy    TOTEN  =        -8.99648067 eV

  energy without entropy =       -8.99609852  energy(sigma->0) =       -8.99628959


--------------------------------------------------------------------------------------------------------




----------------------------------------- Iteration    1(   4)  ---------------------------------------


     EDDAV:  cpu time    0.67: real time    0.67
       DOS:  cpu time    0.00: real time    0.00
    --------------------------------------------
      LOOP:  cpu time    0.67: real time    0.67

 eigenvalue-minimisations  :  1672
 total energy-change (2. order) :-0.2031565E-02  (-0.2031527E-02)
 number of electron       8.0000000 magnetization 
 augmentation part        8.0000000 magnetization 

 Free energy of the ion-electron system (eV)
  ---------------------------------------------------
  alpha Z        PSCENC =         1.99205638
  Ewald energy   TEWEN  =      -191.93287089
  -Hartree energ DENC   =       -20.20446501
  -exchange      EXHF   =         0.00000000
  -V(xc)+E(xc)   XCENC  =       -20.32253041
  PAW double counting   =        65.95520812      -30.76852678
  entropy T*S    EENTRO =        -0.00038078
  eigenvalues    EBANDS =       -19.85012196
  atomic energy  EATOM  =       206.13311910
  ---------------------------------------------------
  free energy    TOTEN  =        -8.99851223 eV

  energy without entropy =       -8.99813145  energy(sigma->0) =       -8.99832184


--------------------------------------------------------------------------------------------------------




----------------------------------------- Iteration    1(   5)  ---------------------------------------


     EDDAV:  cpu time    0.64: real time    0.64
       DOS:  cpu time    0.00: real time    0.00
    CHARGE:  cpu time    0.03: real time    0.03
    MIXING:  cpu time    0.00: real time    0.00
    --------------------------------------------
      LOOP:  cpu time    0.66: real time    0.68

 eigenvalue-minimisations  :  1592
 total energy-change (2. order) :-0.5708989E-05  (-0.5708951E-05)
 number of electron       8.0000001 magnetization 
 augmentation part       -0.4818755 magnetization 

 Broyden mixing:
  rms(total) = 0.18689E+00    rms(broyden)= 0.18689E+00
  rms(prec ) = 0.47549E+00
  weight for this iteration     100.00

 Free energy of the ion-electron system (eV)
  ---------------------------------------------------
  alpha Z        PSCENC =         1.99205638
  Ewald energy   TEWEN  =      -191.93287089
  -Hartree energ DENC   =       -20.20446501
  -exchange      EXHF   =         0.00000000
  -V(xc)+E(xc)   XCENC  =       -20.32253041
  PAW double counting   =        65.95520812      -30.76852678
  entropy T*S    EENTRO =        -0.00038079
  eigenvalues    EBANDS =       -19.85012766
  atomic energy  EATOM  =       206.13311910
  ---------------------------------------------------
  free energy    TOTEN  =        -8.99851794 eV

  energy without entropy =       -8.99813715  energy(sigma->0) =       -8.99832755


--------------------------------------------------------------------------------------------------------




----------------------------------------- Iteration    1(   6)  ---------------------------------------


    POTLOK:  cpu time    0.02: real time    0.03
    SETDIJ:  cpu time    0.00: real time    0.00
     EDDAV:  cpu time    0.56: real time    0.56
       DOS:  cpu time    0.00: real time    0.00
    CHARGE:  cpu time    0.03: real time    0.03
    MIXING:  cpu time    0.00: real time    0.00
    --------------------------------------------
      LOOP:  cpu time    0.62: real time    0.62

 eigenvalue-minimisations  :  1408
 total energy-change (2. order) : 0.7228483E-02  (-0.3145984E-03)
 number of electron       8.0000001 magnetization 
 augmentation part       -0.4823615 magnetization 

 Broyden mixing:
  rms(total) = 0.11766E+00    rms(broyden)= 0.11766E+00
  rms(prec ) = 0.30278E+00
  weight for this iteration     100.00

 eigenvalues of (default mixing * dielectric matrix)
  average eigenvalue GAMMA=   2.6866
  2.6866

 Free energy of the ion-electron system (eV)
  ---------------------------------------------------
  alpha Z        PSCENC =         1.99205638
  Ewald energy   TEWEN  =      -191.93287089
  -Hartree energ DENC   =       -20.72891604
  -exchange      EXHF   =         0.00000000
  -V(xc)+E(xc)   XCENC  =       -20.24471703
  PAW double counting   =        65.68116273      -30.47918751
  entropy T*S    EENTRO =        -0.00040977
  eigenvalues    EBANDS =       -19.41152643
  atomic energy  EATOM  =       206.13311910
  ---------------------------------------------------
  free energy    TOTEN  =        -8.99128946 eV

  energy without entropy =       -8.99087969  energy(sigma->0) =       -8.99108458


--------------------------------------------------------------------------------------------------------




----------------------------------------- Iteration    1(   7)  ---------------------------------------


    POTLOK:  cpu time    0.02: real time    0.03
    SETDIJ:  cpu time    0.00: real time    0.00
     EDDAV:  cpu time    0.48: real time    0.48
       DOS:  cpu time    0.00: real time    0.00
    CHARGE:  cpu time    0.03: real time    0.03
    MIXING:  cpu time    0.00: real time    0.00
    --------------------------------------------
      LOOP:  cpu time    0.54: real time    0.54

 eigenvalue-minimisations  :  1152
 total energy-change (2. order) : 0.8129545E-02  (-0.1424683E-02)
 number of electron       8.0000001 magnetization 
 augmentation part       -0.4839764 magnetization 

 Broyden mixing:
  rms(total) = 0.77705E-02    rms(broyden)= 0.77705E-02
  rms(prec ) = 0.20426E-01
  weight for this iteration     100.00

 eigenvalues of (default mixing * dielectric matrix)
  average eigenvalue GAMMA=   2.6595
  2.6595  2.6595

 Free energy of the ion-electron system (eV)
  ---------------------------------------------------
  alpha Z        PSCENC =         1.99205638
  Ewald energy   TEWEN  =      -191.93287089
  -Hartree energ DENC   =       -21.88920102
  -exchange      EXHF   =         0.00000000
  -V(xc)+E(xc)   XCENC  =       -20.07019434
  PAW double counting   =        65.06173481      -29.83147497
  entropy T*S    EENTRO =        -0.00049371
  eigenvalues    EBANDS =       -18.44583527
  atomic energy  EATOM  =       206.13311910
  ---------------------------------------------------
  free energy    TOTEN  =        -8.98315991 eV

  energy without entropy =       -8.98266621  energy(sigma->0) =       -8.98291306


--------------------------------------------------------------------------------------------------------




----------------------------------------- Iteration    1(   8)  ---------------------------------------


    POTLOK:  cpu time    0.02: real time    0.03
    SETDIJ:  cpu time    0.00: real time    0.00
     EDDAV:  cpu time    0.52: real time    0.52
       DOS:  cpu time    0.00: real time    0.00
    CHARGE:  cpu time    0.03: real time    0.03
    MIXING:  cpu time    0.00: real time    0.00
    --------------------------------------------
      LOOP:  cpu time    0.58: real time    0.59

 eigenvalue-minimisations  :  1288
 total energy-change (2. order) :-0.1290143E-02  (-0.1816711E-03)
 number of electron       8.0000001 magnetization 
 augmentation part       -0.4835193 magnetization 

 Broyden mixing:
  rms(total) = 0.41213E-02    rms(broyden)= 0.41213E-02
  rms(prec ) = 0.11256E-01
  weight for this iteration     100.00

 eigenvalues of (default mixing * dielectric matrix)
  average eigenvalue GAMMA=   2.2891
  0.9471  3.2586  2.6617

 Free energy of the ion-electron system (eV)
  ---------------------------------------------------
  alpha Z        PSCENC =         1.99205638
  Ewald energy   TEWEN  =      -191.93287089
  -Hartree energ DENC   =       -21.95293565
  -exchange      EXHF   =         0.00000000
  -V(xc)+E(xc)   XCENC  =       -20.07078119
  PAW double counting   =        64.92100513      -29.69252750
  entropy T*S    EENTRO =        -0.00046837
  eigenvalues    EBANDS =       -18.38104706
  atomic energy  EATOM  =       206.13311910
  ---------------------------------------------------
  free energy    TOTEN  =        -8.98445006 eV

  energy without entropy =       -8.98398168  energy(sigma->0) =       -8.98421587


--------------------------------------------------------------------------------------------------------




----------------------------------------- Iteration    1(   9)  ---------------------------------------


    POTLOK:  cpu time    0.02: real time    0.03
    SETDIJ:  cpu time    0.00: real time    0.00
     EDDAV:  cpu time    0.65: real time    0.65
       DOS:  cpu time    0.00: real time    0.00
    CHARGE:  cpu time    0.03: real time    0.03
    MIXING:  cpu time    0.00: real time    0.00
    --------------------------------------------
      LOOP:  cpu time    0.71: real time    0.72

 eigenvalue-minimisations  :  1704
 total energy-change (2. order) :-0.6672448E-04  (-0.1411590E-04)
 number of electron       8.0000001 magnetization 
 augmentation part       -0.4835823 magnetization 

 Broyden mixing:
  rms(total) = 0.56040E-03    rms(broyden)= 0.56040E-03
  rms(prec ) = 0.10432E-02
  weight for this iteration     100.00

 eigenvalues of (default mixing * dielectric matrix)
  average eigenvalue GAMMA=   2.3743
  0.9867  3.4541  2.6786  2.3777

 Free energy of the ion-electron system (eV)
  ---------------------------------------------------
  alpha Z        PSCENC =         1.99205638
  Ewald energy   TEWEN  =      -191.93287089
  -Hartree energ DENC   =       -22.01678539
  -exchange      EXHF   =         0.00000000
  -V(xc)+E(xc)   XCENC  =       -20.06236244
  PAW double counting   =        64.86819487      -29.63822337
  entropy T*S    EENTRO =        -0.00046682
  eigenvalues    EBANDS =       -18.32717823
  atomic energy  EATOM  =       206.13311910
  ---------------------------------------------------
  free energy    TOTEN  =        -8.98451678 eV

  energy without entropy =       -8.98404996  energy(sigma->0) =       -8.98428337


--------------------------------------------------------------------------------------------------------




----------------------------------------- Iteration    1(  10)  ---------------------------------------


    POTLOK:  cpu time    0.02: real time    0.03
    SETDIJ:  cpu time    0.00: real time    0.00
     EDDAV:  cpu time    0.51: real time    0.51
       DOS:  cpu time    0.00: real time    0.00
    CHARGE:  cpu time    0.03: real time    0.03
    MIXING:  cpu time    0.00: real time    0.00
    --------------------------------------------
      LOOP:  cpu time    0.56: real time    0.57

 eigenvalue-minimisations  :  1256
 total energy-change (2. order) :-0.7659857E-05  (-0.1115923E-05)
 number of electron       8.0000001 magnetization 
 augmentation part       -0.4835757 magnetization 

 Broyden mixing:
  rms(total) = 0.21782E-03    rms(broyden)= 0.21782E-03
  rms(prec ) = 0.39118E-03
  weight for this iteration     100.00

 eigenvalues of (default mixing * dielectric matrix)
  average eigenvalue GAMMA=   2.1994
  3.5291  2.6694  2.6694  0.9997  1.1295

 Free energy of the ion-electron system (eV)
  ---------------------------------------------------
  alpha Z        PSCENC =         1.99205638
  Ewald energy   TEWEN  =      -191.93287089
  -Hartree energ DENC   =       -22.01971578
  -exchange      EXHF   =         0.00000000
  -V(xc)+E(xc)   XCENC  =       -20.06182753
  PAW double counting   =        64.86653493      -29.63601878
  entropy T*S    EENTRO =        -0.00046550
  eigenvalues    EBANDS =       -18.32533637
  atomic energy  EATOM  =       206.13311910
  ---------------------------------------------------
  free energy    TOTEN  =        -8.98452444 eV

  energy without entropy =       -8.98405894  energy(sigma->0) =       -8.98429169


--------------------------------------------------------------------------------------------------------




----------------------------------------- Iteration    1(  11)  ---------------------------------------


    POTLOK:  cpu time    0.02: real time    0.03
    SETDIJ:  cpu time    0.00: real time    0.00
     EDDAV:  cpu time    0.64: real time    0.63
       DOS:  cpu time    0.00: real time    0.00
    CHARGE:  cpu time    0.03: real time    0.03
    MIXING:  cpu time    0.00: real time    0.00
    --------------------------------------------
      LOOP:  cpu time    0.68: real time    0.70

 eigenvalue-minimisations  :  1680
 total energy-change (2. order) :-0.3054162E-06  (-0.7389810E-07)
 number of electron       8.0000001 magnetization 
 augmentation part       -0.4835860 magnetization 

 Broyden mixing:
  rms(total) = 0.57695E-04    rms(broyden)= 0.57695E-04
  rms(prec ) = 0.13043E-03
  weight for this iteration     100.00

 eigenvalues of (default mixing * dielectric matrix)
  average eigenvalue GAMMA=   2.2157
  3.6082  0.9777  0.9777  2.9064  2.4119  2.4119

 Free energy of the ion-electron system (eV)
  ---------------------------------------------------
  alpha Z        PSCENC =         1.99205638
  Ewald energy   TEWEN  =      -191.93287089
  -Hartree energ DENC   =       -22.01980662
  -exchange      EXHF   =         0.00000000
  -V(xc)+E(xc)   XCENC  =       -20.06157064
  PAW double counting   =        64.87018923      -29.63948700
  entropy T*S    EENTRO =        -0.00046555
  eigenvalues    EBANDS =       -18.32568875
  atomic energy  EATOM  =       206.13311910
  ---------------------------------------------------
  free energy    TOTEN  =        -8.98452475 eV

  energy without entropy =       -8.98405920  energy(sigma->0) =       -8.98429197


--------------------------------------------------------------------------------------------------------




----------------------------------------- Iteration    1(  12)  ---------------------------------------


    POTLOK:  cpu time    0.02: real time    0.03
    SETDIJ:  cpu time    0.00: real time    0.00
     EDDAV:  cpu time    0.48: real time    0.48
       DOS:  cpu time    0.00: real time    0.00
    CHARGE:  cpu time    0.03: real time    0.03
    MIXING:  cpu time    0.00: real time    0.00
    --------------------------------------------
      LOOP:  cpu time    0.54: real time    0.55

 eigenvalue-minimisations  :  1192
 total energy-change (2. order) :-0.1586093E-06  (-0.4322933E-08)
 number of electron       8.0000001 magnetization 
 augmentation part       -0.4835818 magnetization 

 Broyden mixing:
  rms(total) = 0.64408E-05    rms(broyden)= 0.64408E-05
  rms(prec ) = 0.14123E-04
  weight for this iteration     100.00

 eigenvalues of (default mixing * dielectric matrix)
  average eigenvalue GAMMA=   2.1057
  3.6403  2.8619  2.5665  2.5487  0.9896  0.9439  1.1893

 Free energy of the ion-electron system (eV)
  ---------------------------------------------------
  alpha Z        PSCENC =         1.99205638
  Ewald energy   TEWEN  =      -191.93287089
  -Hartree energ DENC   =       -22.02014214
  -exchange      EXHF   =         0.00000000
  -V(xc)+E(xc)   XCENC  =       -20.06155885
  PAW double counting   =        64.87107680      -29.64046278
  entropy T*S    EENTRO =        -0.00046549
  eigenvalues    EBANDS =       -18.32527703
  atomic energy  EATOM  =       206.13311910
  ---------------------------------------------------
  free energy    TOTEN  =        -8.98452491 eV

  energy without entropy =       -8.98405941  energy(sigma->0) =       -8.98429216


--------------------------------------------------------------------------------------------------------




----------------------------------------- Iteration    1(  13)  ---------------------------------------


    POTLOK:  cpu time    0.02: real time    0.03
    SETDIJ:  cpu time    0.00: real time    0.00
     EDDAV:  cpu time    0.67: real time    0.67
       DOS:  cpu time    0.00: real time    0.00
    CHARGE:  cpu time    0.03: real time    0.03
    MIXING:  cpu time    0.00: real time    0.00
    --------------------------------------------
      LOOP:  cpu time    0.72: real time    0.73

 eigenvalue-minimisations  :  1784
 total energy-change (2. order) :-0.3649347E-08  (-0.4454188E-10)
 number of electron       8.0000001 magnetization 
 augmentation part       -0.4835816 magnetization 

 Broyden mixing:
  rms(total) = 0.25041E-05    rms(broyden)= 0.25041E-05
  rms(prec ) = 0.56760E-05
  weight for this iteration     100.00

 eigenvalues of (default mixing * dielectric matrix)
  average eigenvalue GAMMA=   2.1278
  3.6354  2.9408  2.6123  2.4232  2.4232  0.9809  0.9809  1.0258

 Free energy of the ion-electron system (eV)
  ---------------------------------------------------
  alpha Z        PSCENC =         1.99205638
  Ewald energy   TEWEN  =      -191.93287089
  -Hartree energ DENC   =       -22.02019067
  -exchange      EXHF   =         0.00000000
  -V(xc)+E(xc)   XCENC  =       -20.06155189
  PAW double counting   =        64.87104357      -29.64043215
  entropy T*S    EENTRO =        -0.00046550
  eigenvalues    EBANDS =       -18.32523286
  atomic energy  EATOM  =       206.13311910
  ---------------------------------------------------
  free energy    TOTEN  =        -8.98452491 eV

  energy without entropy =       -8.98405941  energy(sigma->0) =       -8.98429216


--------------------------------------------------------------------------------------------------------




----------------------------------------- Iteration    1(  14)  ---------------------------------------


    POTLOK:  cpu time    0.02: real time    0.03
    SETDIJ:  cpu time    0.00: real time    0.00
     EDDAV:  cpu time    0.50: real time    0.49
       DOS:  cpu time    0.00: real time    0.00
    CHARGE:  cpu time    0.03: real time    0.03
    MIXING:  cpu time    0.00: real time    0.00
    --------------------------------------------
      LOOP:  cpu time    0.54: real time    0.56

 eigenvalue-minimisations  :  1224
 total energy-change (2. order) : 0.7468515E-08  (-0.1835455E-10)
 number of electron       8.0000001 magnetization 
 augmentation part       -0.4835818 magnetization 

 Broyden mixing:
  rms(total) = 0.26128E-06    rms(broyden)= 0.26128E-06
  rms(prec ) = 0.45460E-06
  weight for this iteration     100.00

 eigenvalues of (default mixing * dielectric matrix)
  average eigenvalue GAMMA=   2.0179
  3.6315  2.9669  2.6861  2.5734  2.4318  1.0776  0.9873  0.9538  0.8526

 Free energy of the ion-electron system (eV)
  ---------------------------------------------------
  alpha Z        PSCENC =         1.99205638
  Ewald energy   TEWEN  =      -191.93287089
  -Hartree energ DENC   =       -22.02018097
  -exchange      EXHF   =         0.00000000
  -V(xc)+E(xc)   XCENC  =       -20.06155250
  PAW double counting   =        64.87088079      -29.64026453
  entropy T*S    EENTRO =        -0.00046549
  eigenvalues    EBANDS =       -18.32524679
  atomic energy  EATOM  =       206.13311910
  ---------------------------------------------------
  free energy    TOTEN  =        -8.98452490 eV

  energy without entropy =       -8.98405941  energy(sigma->0) =       -8.98429216


--------------------------------------------------------------------------------------------------------




----------------------------------------- Iteration    1(  15)  ---------------------------------------


    POTLOK:  cpu time    0.02: real time    0.03
    SETDIJ:  cpu time    0.00: real time    0.00
     EDDAV:  cpu time    0.30: real time    0.31
       DOS:  cpu time    0.00: real time    0.00
    --------------------------------------------
      LOOP:  cpu time    0.32: real time    0.34

 eigenvalue-minimisations  :   576
 total energy-change (2. order) :-0.9293899E-11  (-0.1774073E-12)
 number of electron       8.0000001 magnetization 
 augmentation part       -0.4835818 magnetization 

 Free energy of the ion-electron system (eV)
  ---------------------------------------------------
  alpha Z        PSCENC =         1.99205638
  Ewald energy   TEWEN  =      -191.93287089
  -Hartree energ DENC   =       -22.02018077
  -exchange      EXHF   =         0.00000000
  -V(xc)+E(xc)   XCENC  =       -20.06155270
  PAW double counting   =        64.87087028      -29.64025406
  entropy T*S    EENTRO =        -0.00046549
  eigenvalues    EBANDS =       -18.32524675
  atomic energy  EATOM  =       206.13311910
  ---------------------------------------------------
  free energy    TOTEN  =        -8.98452490 eV

  energy without entropy =       -8.98405941  energy(sigma->0) =       -8.98429216


--------------------------------------------------------------------------------------------------------




 average (electrostatic) potential at core
  the test charge radii are     0.9892
  (the norm of the test charge is              1.0000)
       1 -88.0793       2 -88.0793
 
 
 
 E-fermi :   1.6253     XC(G=0):  -7.4822     alpha+bet : -7.0966


 k-point     1 :       0.0000    0.0000    0.0000
  band No.  band energies     occupation 
      1      -7.4731      2.00000
      2       0.1551      2.00000
      3       1.6482      0.56996
      4       1.6482      0.56995
      5       1.6482      0.56995
      6       3.8499      0.00000
      7       3.8499      0.00000
      8       3.8499      0.00000

 k-point     2 :       0.0833    0.0000    0.0000
  band No.  band energies     occupation 
      1      -7.4175      2.00000
      2      -0.3079      2.00000
      3       1.5686      1.81237
      4       1.5686      1.81237
      5       1.8788      0.00008
      6       3.9691      0.00000
      7       3.9691      0.00000
      8       4.0011      0.00000

 k-point     3 :       0.1667    0.0000    0.0000
  band No.  band energies     occupation 
      1      -7.2537      2.00000
      2      -1.1700      2.00000
      3       1.3850      1.99987
      4       1.3850      1.99987
      5       2.0225      0.00000
      6       4.2459      0.00000
      7       4.2459      0.00000
      8       4.5530      0.00000

 k-point     4 :       0.2500    0.0000    0.0000
  band No.  band energies     occupation 
      1      -6.9931      2.00000
      2      -2.0701      2.00000
      3       1.1850      2.00000
      4       1.1850      2.00000
      5       1.9300      0.00001
      6       4.5266      0.00000
      7       4.5266      0.00000
      8       5.4348      0.00000

 k-point     5 :       0.3333    0.0000    0.0000
  band No.  band energies     occupation 
      1      -6.6646      2.00000
      2      -2.8881      2.00000
      3       1.0208      2.00000
      4       1.0208      2.00000
      5       1.7789      0.00427
      6       4.7028      0.00000
      7       4.7028      0.00000
      8       6.4484      0.00000

 k-point     6 :       0.4167    0.0000    0.0000
  band No.  band energies     occupation 
      1      -6.3418      2.00000
      2      -3.5150      2.00000
      3       0.9161      2.00000
      4       0.9161      2.00000
      5       1.6655      0.33367
      6       4.7706      0.00000
      7       4.7706      0.00000
      8       7.3872      0.00000

 k-point     7 :       0.5000    0.0000    0.0000
  band No.  band energies     occupation 
      1      -6.1899      2.00000
      2      -3.7699      2.00000
      3       0.8803      2.00000
      4       0.8803      2.00000
      5       1.6247      1.01122
      6       4.7840      0.00000
      7       4.7840      0.00000
      8       7.7997      0.00000

 k-point     8 :       0.0833    0.0833    0.0000
  band No.  band energies     occupation 
      1      -7.3988      2.00000
      2      -0.4059      2.00000
      3       1.4281      1.99925
      4       1.4281      1.99925
      5       2.1882      0.00000
      6       3.6896      0.00000
      7       4.1618      0.00000
      8       4.1618      0.00000

 k-point     9 :       0.1667    0.0833    0.0000
  band No.  band energies     occupation 
      1      -7.2703      2.00000
      2      -1.0493      2.00000
      3       1.2171      2.00000
      4       1.2292      2.00000
      5       2.4858      0.00000
      6       3.7145      0.00000
      7       4.4880      0.00000
      8       4.5864      0.00000

 k-point    10 :       0.2500    0.0833    0.0000
  band No.  band energies     occupation 
      1      -7.0402      2.00000
      2      -1.8737      2.00000
      3       0.9771      2.00000
      4       1.0160      2.00000
      5       2.4973      0.00000
      6       4.0295      0.00000
      7       4.8005      0.00000
      8       5.2397      0.00000

 k-point    11 :       0.3333    0.0833    0.0000
  band No.  band energies     occupation 
      1      -6.7292      2.00000
      2      -2.6878      2.00000
      3       0.7245      2.00000
      4       0.8680      2.00000
      5       2.3732      0.00000
      6       4.3808      0.00000
      7       4.9845      0.00000
      8       6.0017      0.00000

 k-point    12 :       0.4167    0.0833    0.0000
  band No.  band energies     occupation 
      1      -6.3905      2.00000
      2      -3.3731      2.00000
      3       0.5245      2.00000
      4       0.7917      2.00000
      5       2.2483      0.00000
      6       4.6002      0.00000
      7       5.0226      0.00000
      8       6.8225      0.00000

 k-point    13 :       0.5000    0.0833    0.0000
  band No.  band energies     occupation 
      1      -6.1569      2.00000
      2      -3.7687      2.00000
      3       0.4021      2.00000
      4       0.7926      2.00000
      5       2.1747      0.00000
      6       4.7179      0.00000
      7       4.9748      0.00000
      8       7.5080      0.00000

 k-point    14 :      -0.4167    0.0833    0.0000
  band No.  band energies     occupation 
      1      -6.2111      2.00000
      2      -3.6813      2.00000
      3       0.3688      2.00000
      4       0.8686      2.00000
      5       2.1691      0.00000
      6       4.7945      0.00000
      7       4.8880      0.00000
      8       7.4099      0.00000

 k-point    15 :      -0.3333    0.0833    0.0000
  band No.  band energies     occupation 
      1      -6.5020      2.00000
      2      -3.1646      2.00000
      3       0.4304      2.00000
      4       1.0108      2.00000
      5       2.2286      0.00000
      6       4.7557      0.00000
      7       4.8187      0.00000
      8       6.6095      0.00000

 k-point    16 :      -0.2500    0.0833    0.0000
  band No.  band energies     occupation 
      1      -6.8409      2.00000
      2      -2.4242      2.00000
      3       0.5900      2.00000
      4       1.2016      2.00000
      5       2.3248      0.00000
      6       4.5401      0.00000
      7       4.6916      0.00000
      8       5.7497      0.00000

 k-point    17 :      -0.1667    0.0833    0.0000
  band No.  band energies     occupation 
      1      -7.1282      2.00000
      2      -1.5995      2.00000
      3       0.8484      2.00000
      4       1.4057      1.99969
      5       2.3722      0.00000
      6       4.2536      0.00000
      7       4.3389      0.00000
      8       5.0561      0.00000

 k-point    18 :      -0.0833    0.0833    0.0000
  band No.  band energies     occupation 
      1      -7.3255      2.00000
      2      -0.8190      2.00000
      3       1.2014      2.00000
      4       1.5564      1.88014
      5       2.2015      0.00000
      6       4.0133      0.00000
      7       4.0253      0.00000
      8       4.4769      0.00000

 k-point    19 :       0.1667    0.1667    0.0000
  band No.  band energies     occupation 
      1      -7.1772      2.00000
      2      -1.3495      2.00000
      3       0.9903      2.00000
      4       0.9903      2.00000
      5       2.9974      0.00000
      6       3.3439      0.00000
      7       4.8710      0.00000
      8       4.8710      0.00000

 k-point    20 :       0.2500    0.1667    0.0000
  band No.  band energies     occupation 
      1      -6.9794      2.00000
      2      -1.9497      2.00000
      3       0.7200      2.00000
      4       0.7820      2.00000
      5       3.1556      0.00000
      6       3.4169      0.00000
      7       5.2517      0.00000
      8       5.3319      0.00000

 k-point    21 :       0.3333    0.1667    0.0000
  band No.  band energies     occupation 
      1      -6.6916      2.00000
      2      -2.6524      2.00000
      3       0.3858      2.00000
      4       0.6341      2.00000
      5       3.0544      0.00000
      6       3.8764      0.00000
      7       5.4987      0.00000
      8       5.6931      0.00000

 k-point    22 :       0.4167    0.1667    0.0000
  band No.  band energies     occupation 
      1      -6.3508      2.00000
      2      -3.3177      2.00000
      3       0.0804      2.00000
      4       0.5653      2.00000
      5       2.9268      0.00000
      6       4.3698      0.00000
      7       5.5604      0.00000
      8       6.0426      0.00000

 k-point    23 :       0.5000    0.1667    0.0000
  band No.  band energies     occupation 
      1      -6.0567      2.00000
      2      -3.7965      2.00000
      3      -0.1383      2.00000
      4       0.5812      2.00000
      5       2.8356      0.00000
      6       4.6817      0.00000
      7       5.4870      0.00000
      8       6.6441      0.00000

 k-point    24 :      -0.4167    0.1667    0.0000
  band No.  band energies     occupation 
      1      -6.0075      2.00000
      2      -3.8695      2.00000
      3      -0.2440      2.00000
      4       0.6786      2.00000
      5       2.8016      0.00000
      6       4.8518      0.00000
      7       5.3397      0.00000
      8       7.0986      0.00000

 k-point    25 :      -0.3333    0.1667    0.0000
  band No.  band energies     occupation 
      1      -6.2514      2.00000
      2      -3.4889      2.00000
      3      -0.2190      2.00000
      4       0.8457      2.00000
      5       2.8165      0.00000
      6       4.9555      0.00000
      7       5.1287      0.00000
      8       6.5114      0.00000

 k-point    26 :      -0.2500    0.1667    0.0000
  band No.  band energies     occupation 
      1      -6.5927      2.00000
      2      -2.8734      2.00000
      3      -0.0425      2.00000
      4       1.0582      2.00000
      5       2.8338      0.00000
      6       4.8344      0.00000
      7       4.8856      0.00000
      8       5.8241      0.00000

 k-point    27 :      -0.1667    0.1667    0.0000
  band No.  band energies     occupation 
      1      -6.9015      2.00000
      2      -2.2025      2.00000
      3       0.3112      2.00000
      4       1.2706      2.00000
      5       2.7302      0.00000
      6       4.4966      0.00000
      7       4.5411      0.00000
      8       5.4696      0.00000

 k-point    28 :       0.2500    0.2500    0.0000
  band No.  band energies     occupation 
      1      -6.8133      2.00000
      2      -2.3207      2.00000
      3       0.5629      2.00000
      4       0.5629      2.00000
      5       3.0084      0.00000
      6       3.4840      0.00000
      7       5.7364      0.00000
      8       5.7364      0.00000

 k-point    29 :       0.3333    0.2500    0.0000
  band No.  band energies     occupation 
      1      -6.5517      2.00000
      2      -2.8603      2.00000
      3       0.2845      2.00000
      4       0.4042      2.00000
      5       3.0441      0.00000
      6       3.5716      0.00000
      7       6.0085      0.00000
      8       6.1046      0.00000

 k-point    30 :       0.4167    0.2500    0.0000
  band No.  band energies     occupation 
      1      -6.2195      2.00000
      2      -3.4371      2.00000
      3      -0.0885      2.00000
      4       0.3271      2.00000
      5       3.0970      0.00000
      6       3.9853      0.00000
      7       5.9976      0.00000
      8       6.2529      0.00000

 k-point    31 :       0.5000    0.2500    0.0000
  band No.  band energies     occupation 
      1      -5.8865      2.00000
      2      -3.9266      2.00000
      3      -0.4148      2.00000
      4       0.3388      2.00000
      5       3.0667      0.00000
      6       4.6693      0.00000
      7       6.0518      0.00000
      8       6.1968      0.00000

 k-point    32 :      -0.4167    0.2500    0.0000
  band No.  band energies     occupation 
      1      -5.7406      2.00000
      2      -4.1187      2.00000
      3      -0.6142      2.00000
      4       0.4375      2.00000
      5       3.0668      0.00000
      6       5.1886      0.00000
      7       6.0029      0.00000
      8       6.4073      0.00000

 k-point    33 :      -0.3333    0.2500    0.0000
  band No.  band energies     occupation 
      1      -5.9323      2.00000
      2      -3.8648      2.00000
      3      -0.6421      2.00000
      4       0.6112      2.00000
      5       3.0957      0.00000
      6       5.4128      0.00000
      7       5.6934      0.00000
      8       6.3177      0.00000

 k-point    34 :      -0.2500    0.2500    0.0000
  band No.  band energies     occupation 
      1      -6.2705      2.00000
      2      -3.3821      2.00000
      3      -0.4609      2.00000
      4       0.8345      2.00000
      5       3.0736      0.00000
      6       5.2739      0.00000
      7       5.3404      0.00000
      8       5.7922      0.00000

 k-point    35 :       0.3333    0.3333    0.0000
  band No.  band energies     occupation 
      1      -6.3153      2.00000
      2      -3.2616      2.00000
      3       0.2297      2.00000
      4       0.2297      2.00000
      5       2.7896      0.00000
      6       3.4327      0.00000
      7       6.6433      0.00000
      8       6.6433      0.00000

 k-point    36 :       0.4167    0.3333    0.0000
  band No.  band energies     occupation 
      1      -5.9980      2.00000
      2      -3.7421      2.00000
      3      -0.0222      2.00000
      4       0.1357      2.00000
      5       2.8916      0.00000
      6       3.4305      0.00000
      7       6.7723      0.00000
      8       6.9512      0.00000

 k-point    37 :       0.5000    0.3333    0.0000
  band No.  band energies     occupation 
      1      -5.6446      2.00000
      2      -4.1997      2.00000
      3      -0.3879      2.00000
      4       0.1323      2.00000
      5       2.9830      0.00000
      6       3.9479      0.00000
      7       6.6565      0.00000
      8       6.9635      0.00000

 k-point    38 :      -0.4167    0.3333    0.0000
  band No.  band energies     occupation 
      1      -5.4229      2.00000
      2      -4.4530      2.00000
      3      -0.6811      2.00000
      4       0.2193      2.00000
      5       3.0270      0.00000
      6       4.8193      0.00000
      7       6.5321      0.00000
      8       6.7254      0.00000

 k-point    39 :      -0.3333    0.3333    0.0000
  band No.  band energies     occupation 
      1      -5.5943      2.00000
      2      -4.2553      2.00000
      3      -0.7883      2.00000
      4       0.3868      2.00000
      5       3.0951      0.00000
      6       5.6466      0.00000
      7       6.2768      0.00000
      8       6.2780      0.00000

 k-point    40 :       0.4167    0.4167    0.0000
  band No.  band energies     occupation 
      1      -5.6948      2.00000
      2      -4.1499      2.00000
      3       0.0214      2.00000
      4       0.0214      2.00000
      5       2.7340      0.00000
      6       3.1243      0.00000
      7       7.4607      0.00000
      8       7.4607      0.00000

 k-point    41 :       0.5000    0.4167    0.0000
  band No.  band energies     occupation 
      1      -5.3342      2.00000
      2      -4.5714      2.00000
      3      -0.1794      2.00000
      4      -0.0026      2.00000
      5       2.8684      0.00000
      6       3.1988      0.00000
      7       7.4995      0.00000
      8       7.5959      0.00000

 k-point    42 :      -0.4167    0.4167    0.0000
  band No.  band energies     occupation 
      1      -5.1188      2.00000
      2      -4.7882      2.00000
      3      -0.4898      2.00000
      4       0.0659      2.00000
      5       2.9354      0.00000
      6       3.8949      0.00000
      7       7.1852      0.00000
      8       7.3183      0.00000

 k-point    43 :       0.5000    0.5000    0.0000
  band No.  band energies     occupation 
      1      -4.9671      2.00000
      2      -4.9671      2.00000
      3      -0.0491      2.00000
      4      -0.0491      2.00000
      5       2.8542      0.00000
      6       2.8542      0.00000
      7       7.8495      0.00000
      8       7.8495      0.00000

 k-point    44 :       0.2500    0.1667    0.0833
  band No.  band energies     occupation 
      1      -7.1077      2.00000
      2      -1.6162      2.00000
      3       0.7572      2.00000
      4       1.1744      2.00000
      5       2.8090      0.00000
      6       3.7030      0.00000
      7       4.7664      0.00000
      8       5.0904      0.00000

 k-point    45 :       0.3333    0.1667    0.0833
  band No.  band energies     occupation 
      1      -6.8484      2.00000
      2      -2.3282      2.00000
      3       0.3848      2.00000
      4       1.0155      2.00000
      5       2.8879      0.00000
      6       4.0142      0.00000
      7       5.0985      0.00000
      8       5.5303      0.00000

 k-point    46 :       0.4167    0.1667    0.0833
  band No.  band energies     occupation 
      1      -6.5196      2.00000
      2      -3.0418      2.00000
      3       0.1290      2.00000
      4       0.8368      2.00000
      5       2.8133      0.00000
      6       4.4119      0.00000
      7       5.2666      0.00000
      8       6.0399      0.00000

 k-point    47 :       0.5000    0.1667    0.0833
  band No.  band energies     occupation 
      1      -6.1926      2.00000
      2      -3.6205      2.00000
      3      -0.0181      2.00000
      4       0.7082      2.00000
      5       2.7337      0.00000
      6       4.6348      0.00000
      7       5.2956      0.00000
      8       6.7352      0.00000

 k-point    48 :      -0.4167    0.1667    0.0833
  band No.  band energies     occupation 
      1      -6.0361      2.00000
      2      -3.8641      2.00000
      3      -0.0659      2.00000
      4       0.6622      2.00000
      5       2.7030      0.00000
      6       4.6913      0.00000
      7       5.2959      0.00000
      8       7.2319      0.00000

 k-point    49 :       0.3333    0.2500    0.0833
  band No.  band energies     occupation 
      1      -6.7506      2.00000
      2      -2.4841      2.00000
      3       0.3350      2.00000
      4       0.6733      2.00000
      5       3.3844      0.00000
      6       3.4151      0.00000
      7       5.5902      0.00000
      8       5.6722      0.00000

 k-point    50 :       0.4167    0.2500    0.0833
  band No.  band energies     occupation 
      1      -6.4398      2.00000
      2      -3.0919      2.00000
      3      -0.0159      2.00000
      4       0.5224      2.00000
      5       3.3297      0.00000
      6       3.9041      0.00000
      7       5.6314      0.00000
      8       6.0132      0.00000

 k-point    51 :       0.5000    0.2500    0.0833
  band No.  band energies     occupation 
      1      -6.0958      2.00000
      2      -3.6563      2.00000
      3      -0.2857      2.00000
      4       0.4172      2.00000
      5       3.2503      0.00000
      6       4.4630      0.00000
      7       5.7163      0.00000
      8       6.2039      0.00000

 k-point    52 :      -0.4167    0.2500    0.0833
  band No.  band energies     occupation 
      1      -5.8533      2.00000
      2      -4.0035      2.00000
      3      -0.4520      2.00000
      4       0.4079      2.00000
      5       3.2110      0.00000
      6       4.7549      0.00000
      7       5.8630      0.00000
      8       6.5227      0.00000

 k-point    53 :      -0.3333    0.2500    0.0833
  band No.  band energies     occupation 
      1      -5.9204      2.00000
      2      -3.9107      2.00000
      3      -0.4924      2.00000
      4       0.4976      2.00000
      5       3.2187      0.00000
      6       4.8094      0.00000
      7       5.7862      0.00000
      8       6.5648      0.00000

 k-point    54 :      -0.2500    0.2500    0.0833
  band No.  band energies     occupation 
      1      -6.2262      2.00000
      2      -3.4581      2.00000
      3      -0.3819      2.00000
      4       0.6657      2.00000
      5       3.2435      0.00000
      6       4.6435      0.00000
      7       5.6232      0.00000
      8       6.0227      0.00000

 k-point    55 :      -0.1667    0.2500    0.0833
  band No.  band energies     occupation 
      1      -6.5660      2.00000
      2      -2.8838      2.00000
      3      -0.0933      2.00000
      4       0.8672      2.00000
      5       3.1840      0.00000
      6       4.2485      0.00000
      7       5.5086      0.00000
      8       5.6004      0.00000

 k-point    56 :       0.4167    0.3333    0.0833
  band No.  band energies     occupation 
      1      -6.2637      2.00000
      2      -3.3486      2.00000
      3       0.0215      2.00000
      4       0.2549      2.00000
      5       3.1649      0.00000
      6       3.5785      0.00000
      7       6.0745      0.00000
      8       6.6056      0.00000

 k-point    57 :       0.5000    0.3333    0.0833
  band No.  band energies     occupation 
      1      -5.9177      2.00000
      2      -3.8508      2.00000
      3      -0.2985      2.00000
      4       0.1436      2.00000
      5       3.3118      0.00000
      6       3.9787      0.00000
      7       5.9616      0.00000
      8       6.8366      0.00000

 k-point    58 :      -0.4167    0.3333    0.0833
  band No.  band energies     occupation 
      1      -5.6110      2.00000
      2      -4.2392      2.00000
      3      -0.5792      2.00000
      4       0.1444      2.00000
      5       3.3275      0.00000
      6       4.7470      0.00000
      7       5.9054      0.00000
      8       6.7140      0.00000

 k-point    59 :      -0.3333    0.3333    0.0833
  band No.  band energies     occupation 
      1      -5.5938      2.00000
      2      -4.2578      2.00000
      3      -0.7225      2.00000
      4       0.2516      2.00000
      5       3.3691      0.00000
      6       5.2734      0.00000
      7       6.1459      0.00000
      8       6.2466      0.00000

 k-point    60 :      -0.2500    0.3333    0.0833
  band No.  band energies     occupation 
      1      -5.8830      2.00000
      2      -3.9041      2.00000
      3      -0.6685      2.00000
      4       0.4408      2.00000
      5       3.3949      0.00000
      6       5.1265      0.00000
      7       5.7788      0.00000
      8       6.2858      0.00000

 k-point    61 :       0.5000    0.4167    0.0833
  band No.  band energies     occupation 
      1      -5.6607      2.00000
      2      -4.1812      2.00000
      3      -0.1512      2.00000
      4      -0.0327      2.00000
      5       3.0914      0.00000
      6       3.3872      0.00000
      7       6.7996      0.00000
      8       7.3779      0.00000

 k-point    62 :      -0.4167    0.4167    0.0833
  band No.  band energies     occupation 
      1      -5.3111      2.00000
      2      -4.5752      2.00000
      3      -0.4426      2.00000
      4      -0.0588      2.00000
      5       3.2435      0.00000
      6       3.9263      0.00000
      7       6.6516      0.00000
      8       7.2001      0.00000

 k-point    63 :      -0.3333    0.4167    0.0833
  band No.  band energies     occupation 
      1      -5.2750      2.00000
      2      -4.6045      2.00000
      3      -0.6860      2.00000
      4       0.0524      2.00000
      5       3.3126      0.00000
      6       4.8299      0.00000
      7       6.4769      0.00000
      8       6.4923      0.00000

 k-point    64 :      -0.4167    0.5000    0.0833
  band No.  band energies     occupation 
      1      -4.9594      2.00000
      2      -4.9594      2.00000
      3      -0.1702      2.00000
      4      -0.1702      2.00000
      5       3.1764      0.00000
      6       3.1764      0.00000
      7       7.4595      0.00000
      8       7.4595      0.00000

 k-point    65 :       0.5000    0.3333    0.1667
  band No.  band energies     occupation 
      1      -6.1143      2.00000
      2      -3.5830      2.00000
      3      -0.3638      2.00000
      4       0.3390      2.00000
      5       3.7356      0.00000
      6       4.0443      0.00000
      7       5.5200      0.00000
      8       6.4924      0.00000

 k-point    66 :      -0.4167    0.3333    0.1667
  band No.  band energies     occupation 
      1      -5.7728      2.00000
      2      -4.0394      2.00000
      3      -0.5717      2.00000
      4       0.1710      2.00000
      5       3.7710      0.00000
      6       4.5751      0.00000
      7       5.6047      0.00000
      8       6.6271      0.00000

 k-point    67 :      -0.3333    0.3333    0.1667
  band No.  band energies     occupation 
      1      -5.5932      2.00000
      2      -4.2603      2.00000
      3      -0.6392      2.00000
      4       0.1061      2.00000
      5       3.7626      0.00000
      6       4.7686      0.00000
      7       6.1358      0.00000
      8       6.2039      0.00000

 k-point    68 :      -0.4167    0.4167    0.1667
  band No.  band energies     occupation 
      1      -5.5655      2.00000
      2      -4.2753      2.00000
      3      -0.4634      2.00000
      4      -0.0996      2.00000
      5       3.9483      0.00000
      6       3.9820      0.00000
      7       5.7989      0.00000
      8       7.0124      0.00000

 k-point    69 :      -0.3333    0.4167    0.1667
  band No.  band energies     occupation 
      1      -5.2869      2.00000
      2      -4.5801      2.00000
      3      -0.6069      2.00000
      4      -0.1824      2.00000
      5       3.9946      0.00000
      6       4.7618      0.00000
      7       5.7334      0.00000
      8       6.3439      0.00000

 k-point    70 :      -0.2500    0.4167    0.1667
  band No.  band energies     occupation 
      1      -5.4289      2.00000
      2      -4.4243      2.00000
      3      -0.6744      2.00000
      4      -0.0635      2.00000
      5       4.0097      0.00000
      6       4.9672      0.00000
      7       5.6441      0.00000
      8       6.2422      0.00000

 k-point    71 :      -0.3333    0.5000    0.1667
  band No.  band energies     occupation 
      1      -4.9437      2.00000
      2      -4.9437      2.00000
      3      -0.3754      2.00000
      4      -0.3754      2.00000
      5       3.9594      0.00000
      6       3.9594      0.00000
      7       6.4919      0.00000
      8       6.4919      0.00000

 k-point    72 :      -0.2500    0.5000    0.2500
  band No.  band energies     occupation 
      1      -4.9357      2.00000
      2      -4.9357      2.00000
      3      -0.4651      2.00000
      4      -0.4651      2.00000
      5       4.6470      0.00000
      6       4.6470      0.00000
      7       5.7123      0.00000
      8       5.7123      0.00000


--------------------------------------------------------------------------------------------------------


 soft charge-density along one line, spin component           1
         0         1         2         3         4         5         6         7         8         9
 total charge-density along one line
 
 pseudopotential strength for first ion, spin component:           1
 18.921   0.003   0.000   0.000   0.000  -0.000  -0.000  -0.000
  0.003   0.006  -0.000  -0.000  -0.000   0.000   0.000   0.000
  0.000  -0.000   4.236  -0.000  -0.000  -0.001   0.000   0.000
  0.000  -0.000  -0.000   4.236  -0.000   0.000  -0.001   0.000
  0.000  -0.000  -0.000  -0.000   4.236   0.000   0.000  -0.001
 -0.000   0.000  -0.001   0.000   0.000   0.005  -0.000  -0.000
 -0.000   0.000   0.000  -0.001   0.000  -0.000   0.005  -0.000
 -0.000   0.000   0.000   0.000  -0.001  -0.000  -0.000   0.005
 total augmentation occupancy for first ion, spin component:           1
  1.708  -0.157   0.000   0.000   0.000   0.000  -0.000   0.000
 -0.157   0.225   0.000   0.000   0.000   0.000   0.000  -0.000
  0.000  -0.000   0.747   0.000   0.000  -0.248   0.000   0.000
  0.000  -0.000  -0.000   0.747  -0.000   0.000  -0.248   0.000
  0.000   0.000   0.000  -0.000   0.747   0.000   0.000  -0.248
  0.000  -0.000  -0.248   0.000   0.000   0.103   0.000  -0.000
 -0.000  -0.000   0.000  -0.248   0.000   0.000   0.103   0.000
  0.000   0.000   0.000   0.000  -0.248  -0.000   0.000   0.103


------------------------ aborting loop because EDIFF is reached ----------------------------------------


    CHARGE:  cpu time    0.03: real time    0.03
    FORLOC:  cpu time    0.00: real time    0.00
    FORNL :  cpu time    0.05: real time    0.05
    STRESS:  cpu time    0.44: real time    0.44
    FORCOR:  cpu time    0.02: real time    0.02
    FORHAR:  cpu time    0.01: real time    0.01
    MIXING:  cpu time    0.00: real time    0.00
    OFIELD:  cpu time    0.00: real time    0.00

  FORCE on cell =-STRESS in cart. coord.  units (eV):
  Direction    XX          YY          ZZ          XY          YZ          ZX
  --------------------------------------------------------------------------------------
  Alpha Z     1.99206     1.99206     1.99206
  Ewald     -63.97765   -63.97765   -63.97765     0.00000     0.00000     0.00000
  Hartree     7.34006     7.34006     7.34006     0.00000     0.00000     0.00000
  E(xc)     -23.05613   -23.05613   -23.05613    -0.00000    -0.00000    -0.00000
  Local     -38.30084   -38.30084   -38.30084     0.00001     0.00001     0.00001
  n-local    75.66091    77.09289    71.36290     1.57023    -0.74529     0.17879
  augment   -12.38347   -12.38347   -12.38347    -0.00001    -0.00001    -0.00001
  Kinetic    50.12743    50.73735    42.98052     3.56597    -1.34750     1.00356
  Fock        0.00000     0.00000     0.00000     0.00000     0.00000     0.00000
  -------------------------------------------------------------------------------------
  Total      -5.73198    -5.73198    -5.73198     0.00000    -0.00000    -0.00000
  in kB    -135.86361  -135.86361  -135.86361     0.00000    -0.00000    -0.00000
  external pressure =     -135.86 kB  Pullay stress =        0.00 kB


 VOLUME and BASIS-vectors are now :
 -----------------------------------------------------------------------------
  energy-cutoff  :      600.00
  volume of cell :       67.59
      direct lattice vectors                 reciprocal lattice vectors
     0.000000000  3.233161507  3.233161507    -0.154647394  0.154647394  0.154647394
     3.233161507  0.000000000  3.233161507     0.154647394 -0.154647394  0.154647394
     3.233161507  3.233161507  0.000000000     0.154647394  0.154647394 -0.154647394

  length of vectors
     4.572380853  4.572380853  4.572380853     0.267857143  0.267857143  0.267857143


 FORCES acting on ions
    electron-ion (+dipol)            ewald-force                    non-local-force                 convergence-correction
 -----------------------------------------------------------------------------------------------
   0.149E-06 0.149E-06 0.170E-06   0.245E-14 0.154E-14 0.123E-14   -.555E-16 -.659E-16 -.555E-16   -.416E-12 -.414E-12 -.415E-12
   -.149E-06 -.149E-06 -.170E-06   -.247E-14 -.132E-14 -.102E-14   0.625E-16 0.729E-16 0.590E-16   0.411E-12 0.411E-12 0.410E-12
 -----------------------------------------------------------------------------------------------
   0.123E-12 0.406E-13 -.179E-14   -.148E-16 0.218E-15 0.204E-15   0.694E-17 0.694E-17 0.347E-17   -.474E-14 -.312E-14 -.402E-14
 
 
 POSITION                                       TOTAL-FORCE (eV/Angst)
 -----------------------------------------------------------------------------------
      0.00000      0.00000      0.00000         0.000000      0.000000      0.000000
      1.61658      1.61658      1.61658        -0.000000     -0.000000     -0.000000
 -----------------------------------------------------------------------------------
    total drift:                                0.000000      0.000000     -0.000000


--------------------------------------------------------------------------------------------------------



  FREE ENERGIE OF THE ION-ELECTRON SYSTEM (eV)
  ---------------------------------------------------
  free  energy   TOTEN  =        -8.98452490 eV

  energy  without entropy=       -8.98405941  energy(sigma->0) =       -8.98429216
 


--------------------------------------------------------------------------------------------------------


    POTLOK:  cpu time    0.02: real time    0.02


--------------------------------------------------------------------------------------------------------


 writing wavefunctions
     LOOP+:  cpu time    9.82: real time   10.12
    4ORBIT:  cpu time    0.00: real time    0.00

 total amount of memory used by VASP on root node    50597. kBytes
========================================================================

   base      :      30000. kBytes
   nonl-proj :      10616. kBytes
   fftplans  :       1619. kBytes
   grid      :       3048. kBytes
   one-center:          6. kBytes
   wavefun   :       5308. kBytes
 
  
  
 General timing and accounting informations for this job:
 ========================================================
  
                  Total CPU time used (sec):       10.348
                            User time (sec):       10.036
                          System time (sec):        0.312
                         Elapsed time (sec):       10.755
  
                   Maximum memory used (kb):       60232.
                   Average memory used (kb):           0.
  
                          Minor page faults:         9993
                          Major page faults:            6
                 Voluntary context switches:          603
