 vasp.5.3.5 31Mar14 (build Jun 01 2017 17:55:53) complex                        
  
 executed on             LinuxIFC date 2020.11.10  15:20:07
 running on    4 total cores
 distrk:  each k-point on    4 cores,    1 groups
 distr:  one band on NCORES_PER_BAND=   1 cores,    4 groups


--------------------------------------------------------------------------------------------------------


 INCAR:
 POTCAR:   PAW_PBE Si 05Jan2001                   
 POTCAR:   PAW_PBE Si 05Jan2001                   
   VRHFIN =Si: s2p2                                                             
   LEXCH  = PE                                                                  
   EATOM  =   103.0669 eV,    7.5752 Ry                                         
                                                                                
   TITEL  = PAW_PBE Si 05Jan2001                                                
   LULTRA =        F    use ultrasoft PP ?                                      
   IUNSCR =        1    unscreen: 0-lin 1-nonlin 2-no                           
   RPACOR =    1.500    partial core radius                                     
   POMASS =   28.085; ZVAL   =    4.000    mass and valenz                      
   RCORE  =    1.900    outmost cutoff radius                                   
   RWIGS  =    2.480; RWIGS  =    1.312    wigner-seitz radius (au A)           
   ENMAX  =  245.345; ENMIN  =  184.009 eV                                      
   ICORE  =        2    local potential                                         
   LCOR   =        T    correct aug charges                                     
   LPAW   =        T    paw PP                                                  
   EAUG   =  322.069                                                            
   DEXC   =    -.007                                                            
   RMAX   =    2.944    core radius for proj-oper                               
   RAUG   =    1.300    factor for augmentation sphere                          
   RDEP   =    1.993    radius for radial grids                                 
   QCUT   =   -4.246; QGAM   =    8.493    optimization parameters              
                                                                                
   Description                                                                  
     l     E      TYP  RCUT    TYP  RCUT                                        
     0   .000     23  1.900                                                     
     0   .000     23  1.900                                                     
     1   .000     23  1.900                                                     
     1   .000     23  1.900                                                     
     2   .000      7  1.900                                                     
  local pseudopotential read in
  partial core-charges read in
  atomic valenz-charges read in
  non local Contribution for L=           0  read in
    real space projection operators read in
  non local Contribution for L=           0  read in
    real space projection operators read in
  non local Contribution for L=           1  read in
    real space projection operators read in
  non local Contribution for L=           1  read in
    real space projection operators read in
    PAW grid and wavefunctions read in
 
   number of l-projection  operators is LMAX  =           4
   number of lm-projection operators is LMMAX =           8
 
 PAW_PBE Si 05Jan2001                   :
 energy of atom  1       EATOM= -103.0669
 kinetic energy error for atom=    0.0003 (will be added to EATOM!!)
 
 
 POSCAR: Si
  positions in direct lattice
  velocities in cartesian coordinates
  No initial velocities read in
 exchange correlation table for  LEXCH =        8
   RHO(1)=    0.500       N(1)  =     2000
   RHO(2)=  100.500       N(2)  =     4000
 


--------------------------------------------------------------------------------------------------------


 ion  position               nearest neighbor table
   1  0.000  0.000  0.000-   2 3.05   2 3.05   2 3.05   2 3.05
   2  0.250  0.250  0.250-   1 3.05   1 3.05   1 3.05   1 3.05
 
  LATTYP: Found a face centered cubic cell.
 ALAT       =     7.0436732841
  
  Lattice vectors:
  
 A1 = (   0.0000000000,   3.5218366421,   3.5218366421)
 A2 = (   3.5218366421,   0.0000000000,   3.5218366421)
 A3 = (   3.5218366421,   3.5218366421,   0.0000000000)


Analysis of symmetry for initial positions (statically):
=====================================================================
 Subroutine PRICEL returns:
 Original cell was already a primitive cell.
 

 Routine SETGRP: Setting up the symmetry group for a 
 face centered cubic supercell.


 Subroutine GETGRP returns: Found 48 space group operations
 (whereof 24 operations were pure point group operations)
 out of a pool of 48 trial point group operations.


The static configuration has the point symmetry T_d .
 The point group associated with its full space group is O_h .


Analysis of symmetry for dynamics (positions and initial velocities):
=====================================================================
 Subroutine PRICEL returns:
 Original cell was already a primitive cell.
 

 Routine SETGRP: Setting up the symmetry group for a 
 face centered cubic supercell.


 Subroutine GETGRP returns: Found 48 space group operations
 (whereof 24 operations were pure point group operations)
 out of a pool of 48 trial point group operations.


The dynamic configuration has the point symmetry T_d .
 The point group associated with its full space group is O_h .


Analysis of constrained symmetry for selective dynamics:
=====================================================================
 Subroutine PRICEL returns:
 Original cell was already a primitive cell.
 

 Routine SETGRP: Setting up the symmetry group for a 
 face centered cubic supercell.


 Subroutine GETGRP returns: Found 48 space group operations
 (whereof 24 operations were pure point group operations)
 out of a pool of 48 trial point group operations.


The constrained configuration has the point symmetry T_d .
 The point group associated with its full space group is O_h .
 
 
 KPOINTS: Gamma centered Monkhorst-Pack           

Automatic generation of k-mesh.
Space group operators:
 irot       det(A)        alpha          n_x          n_y          n_z        tau_x        tau_y        tau_z
    1     1.000000     0.000001     1.000000     0.000000     0.000000     0.000000     0.000000     0.000000
    2     1.000000   120.000000    -0.577350    -0.577350    -0.577350     0.000000     0.000000     0.000000
    3     1.000000   120.000000     0.577350     0.577350     0.577350     0.000000     0.000000     0.000000
    4    -1.000000    90.000000     0.000000     0.000000    -1.000000     0.000000     0.000000     0.000000
    5    -1.000000   180.000000     0.000000     0.707107     0.707107     0.000000     0.000000     0.000000
    6    -1.000000    90.000000     0.000000     1.000000     0.000000     0.000000     0.000000     0.000000
    7     1.000000   180.000000     0.000000     0.000000     1.000000     0.000000     0.000000     0.000000
    8     1.000000   120.000000    -0.577350     0.577350     0.577350     0.000000     0.000000     0.000000
    9     1.000000   120.000000    -0.577350     0.577350    -0.577350     0.000000     0.000000     0.000000
   10    -1.000000    90.000000     0.000000     0.000000     1.000000     0.000000     0.000000     0.000000
   11    -1.000000    90.000000    -1.000000     0.000000     0.000000     0.000000     0.000000     0.000000
   12    -1.000000   180.000000     0.707107     0.000000     0.707107     0.000000     0.000000     0.000000
   13     1.000000   120.000000     0.577350    -0.577350     0.577350     0.000000     0.000000     0.000000
   14     1.000000   120.000000    -0.577350    -0.577350     0.577350     0.000000     0.000000     0.000000
   15     1.000000   180.000000     1.000000     0.000000     0.000000     0.000000     0.000000     0.000000
   16    -1.000000    90.000000     0.000000    -1.000000     0.000000     0.000000     0.000000     0.000000
   17    -1.000000   180.000000     0.707107     0.707107     0.000000     0.000000     0.000000     0.000000
   18    -1.000000    90.000000     1.000000     0.000000     0.000000     0.000000     0.000000     0.000000
   19     1.000000   120.000000     0.577350    -0.577350    -0.577350     0.000000     0.000000     0.000000
   20     1.000000   180.000000     0.000000     1.000000     0.000000     0.000000     0.000000     0.000000
   21     1.000000   120.000000     0.577350     0.577350    -0.577350     0.000000     0.000000     0.000000
   22    -1.000000   180.000000     0.000000    -0.707107     0.707107     0.000000     0.000000     0.000000
   23    -1.000000   180.000000     0.707107    -0.707107     0.000000     0.000000     0.000000     0.000000
   24    -1.000000   180.000000     0.707107     0.000000    -0.707107     0.000000     0.000000     0.000000
   25    -1.000000     0.000001     1.000000     0.000000     0.000000     0.250000     0.250000     0.250000
   26    -1.000000   120.000000    -0.577350    -0.577350    -0.577350     0.250000     0.250000     0.250000
   27    -1.000000   120.000000     0.577350     0.577350     0.577350     0.250000     0.250000     0.250000
   28     1.000000    90.000000     0.000000     0.000000    -1.000000     0.250000     0.250000     0.250000
   29     1.000000   180.000000     0.000000     0.707107     0.707107     0.250000     0.250000     0.250000
   30     1.000000    90.000000     0.000000     1.000000     0.000000     0.250000     0.250000     0.250000
   31    -1.000000   180.000000     0.000000     0.000000     1.000000     0.250000     0.250000     0.250000
   32    -1.000000   120.000000    -0.577350     0.577350     0.577350     0.250000     0.250000     0.250000
   33    -1.000000   120.000000    -0.577350     0.577350    -0.577350     0.250000     0.250000     0.250000
   34     1.000000    90.000000     0.000000     0.000000     1.000000     0.250000     0.250000     0.250000
   35     1.000000    90.000000    -1.000000     0.000000     0.000000     0.250000     0.250000     0.250000
   36     1.000000   180.000000     0.707107     0.000000     0.707107     0.250000     0.250000     0.250000
   37    -1.000000   120.000000     0.577350    -0.577350     0.577350     0.250000     0.250000     0.250000
   38    -1.000000   120.000000    -0.577350    -0.577350     0.577350     0.250000     0.250000     0.250000
   39    -1.000000   180.000000     1.000000     0.000000     0.000000     0.250000     0.250000     0.250000
   40     1.000000    90.000000     0.000000    -1.000000     0.000000     0.250000     0.250000     0.250000
   41     1.000000   180.000000     0.707107     0.707107     0.000000     0.250000     0.250000     0.250000
   42     1.000000    90.000000     1.000000     0.000000     0.000000     0.250000     0.250000     0.250000
   43    -1.000000   120.000000     0.577350    -0.577350    -0.577350     0.250000     0.250000     0.250000
   44    -1.000000   180.000000     0.000000     1.000000     0.000000     0.250000     0.250000     0.250000
   45    -1.000000   120.000000     0.577350     0.577350    -0.577350     0.250000     0.250000     0.250000
   46     1.000000   180.000000     0.000000    -0.707107     0.707107     0.250000     0.250000     0.250000
   47     1.000000   180.000000     0.707107    -0.707107     0.000000     0.250000     0.250000     0.250000
   48     1.000000   180.000000     0.707107     0.000000    -0.707107     0.250000     0.250000     0.250000
 
 Subroutine IBZKPT returns following result:
 ===========================================
 
 Found     72 irreducible k-points:
 
 Following reciprocal coordinates:
            Coordinates               Weight
  0.000000  0.000000  0.000000      1.000000
  0.083333  0.000000  0.000000      8.000000
  0.166667  0.000000  0.000000      8.000000
  0.250000  0.000000  0.000000      8.000000
  0.333333  0.000000  0.000000      8.000000
  0.416667  0.000000  0.000000      8.000000
  0.500000  0.000000  0.000000      4.000000
  0.083333  0.083333  0.000000      6.000000
  0.166667  0.083333  0.000000     24.000000
  0.250000  0.083333  0.000000     24.000000
  0.333333  0.083333  0.000000     24.000000
  0.416667  0.083333  0.000000     24.000000
  0.500000  0.083333  0.000000     24.000000
 -0.416667  0.083333  0.000000     24.000000
 -0.333333  0.083333  0.000000     24.000000
 -0.250000  0.083333  0.000000     24.000000
 -0.166667  0.083333  0.000000     24.000000
 -0.083333  0.083333  0.000000     12.000000
  0.166667  0.166667  0.000000      6.000000
  0.250000  0.166667  0.000000     24.000000
  0.333333  0.166667  0.000000     24.000000
  0.416667  0.166667  0.000000     24.000000
  0.500000  0.166667  0.000000     24.000000
 -0.416667  0.166667  0.000000     24.000000
 -0.333333  0.166667  0.000000     24.000000
 -0.250000  0.166667  0.000000     24.000000
 -0.166667  0.166667  0.000000     12.000000
  0.250000  0.250000  0.000000      6.000000
  0.333333  0.250000  0.000000     24.000000
  0.416667  0.250000  0.000000     24.000000
  0.500000  0.250000  0.000000     24.000000
 -0.416667  0.250000  0.000000     24.000000
 -0.333333  0.250000  0.000000     24.000000
 -0.250000  0.250000  0.000000     12.000000
  0.333333  0.333333  0.000000      6.000000
  0.416667  0.333333  0.000000     24.000000
  0.500000  0.333333  0.000000     24.000000
 -0.416667  0.333333  0.000000     24.000000
 -0.333333  0.333333  0.000000     12.000000
  0.416667  0.416667  0.000000      6.000000
  0.500000  0.416667  0.000000     24.000000
 -0.416667  0.416667  0.000000     12.000000
  0.500000  0.500000  0.000000      3.000000
  0.250000  0.166667  0.083333     24.000000
  0.333333  0.166667  0.083333     48.000000
  0.416667  0.166667  0.083333     48.000000
  0.500000  0.166667  0.083333     48.000000
 -0.416667  0.166667  0.083333     24.000000
  0.333333  0.250000  0.083333     24.000000
  0.416667  0.250000  0.083333     48.000000
  0.500000  0.250000  0.083333     48.000000
 -0.416667  0.250000  0.083333     48.000000
 -0.333333  0.250000  0.083333     48.000000
 -0.250000  0.250000  0.083333     48.000000
 -0.166667  0.250000  0.083333     24.000000
  0.416667  0.333333  0.083333     24.000000
  0.500000  0.333333  0.083333     48.000000
 -0.416667  0.333333  0.083333     48.000000
 -0.333333  0.333333  0.083333     48.000000
 -0.250000  0.333333  0.083333     24.000000
  0.500000  0.416667  0.083333     24.000000
 -0.416667  0.416667  0.083333     48.000000
 -0.333333  0.416667  0.083333     24.000000
 -0.416667  0.500000  0.083333     12.000000
  0.500000  0.333333  0.166667     24.000000
 -0.416667  0.333333  0.166667     48.000000
 -0.333333  0.333333  0.166667     24.000000
 -0.416667  0.416667  0.166667     24.000000
 -0.333333  0.416667  0.166667     48.000000
 -0.250000  0.416667  0.166667     24.000000
 -0.333333  0.500000  0.166667     12.000000
 -0.250000  0.500000  0.250000      6.000000
 
 Following cartesian coordinates:
            Coordinates               Weight
  0.000000  0.000000  0.000000      1.000000
 -0.083333  0.083333  0.083333      8.000000
 -0.166667  0.166667  0.166667      8.000000
 -0.250000  0.250000  0.250000      8.000000
 -0.333333  0.333333  0.333333      8.000000
 -0.416667  0.416667  0.416667      8.000000
 -0.500000  0.500000  0.500000      4.000000
  0.000000  0.000000  0.166667      6.000000
 -0.083333  0.083333  0.250000     24.000000
 -0.166667  0.166667  0.333333     24.000000
 -0.250000  0.250000  0.416667     24.000000
 -0.333333  0.333333  0.500000     24.000000
 -0.416667  0.416667  0.583333     24.000000
  0.500000 -0.500000 -0.333333     24.000000
  0.416667 -0.416667 -0.250000     24.000000
  0.333333 -0.333333 -0.166667     24.000000
  0.250000 -0.250000 -0.083333     24.000000
  0.166667 -0.166667  0.000000     12.000000
  0.000000  0.000000  0.333333      6.000000
 -0.083333  0.083333  0.416667     24.000000
 -0.166667  0.166667  0.500000     24.000000
 -0.250000  0.250000  0.583333     24.000000
 -0.333333  0.333333  0.666667     24.000000
  0.583333 -0.583333 -0.250000     24.000000
  0.500000 -0.500000 -0.166667     24.000000
  0.416667 -0.416667 -0.083333     24.000000
  0.333333 -0.333333  0.000000     12.000000
  0.000000  0.000000  0.500000      6.000000
 -0.083333  0.083333  0.583333     24.000000
 -0.166667  0.166667  0.666667     24.000000
 -0.250000  0.250000  0.750000     24.000000
  0.666667 -0.666667 -0.166667     24.000000
  0.583333 -0.583333 -0.083333     24.000000
  0.500000 -0.500000  0.000000     12.000000
  0.000000  0.000000  0.666667      6.000000
 -0.083333  0.083333  0.750000     24.000000
 -0.166667  0.166667  0.833333     24.000000
  0.750000 -0.750000 -0.083333     24.000000
  0.666667 -0.666667  0.000000     12.000000
  0.000000  0.000000  0.833333      6.000000
 -0.083333  0.083333  0.916667     24.000000
  0.833333 -0.833333  0.000000     12.000000
  0.000000  0.000000  1.000000      3.000000
  0.000000  0.166667  0.333333     24.000000
 -0.083333  0.250000  0.416667     48.000000
 -0.166667  0.333333  0.500000     48.000000
 -0.250000  0.416667  0.583333     48.000000
  0.666667 -0.500000 -0.333333     24.000000
  0.000000  0.166667  0.500000     24.000000
 -0.083333  0.250000  0.583333     48.000000
 -0.166667  0.333333  0.666667     48.000000
  0.750000 -0.583333 -0.250000     48.000000
  0.666667 -0.500000 -0.166667     48.000000
  0.583333 -0.416667 -0.083333     48.000000
  0.500000 -0.333333 -0.000000     24.000000
 -0.000000  0.166667  0.666667     24.000000
 -0.083333  0.250000  0.750000     48.000000
  0.833333 -0.666667 -0.166667     48.000000
  0.750000 -0.583333 -0.083333     48.000000
  0.666667 -0.500000  0.000000     24.000000
  0.000000  0.166667  0.833333     24.000000
  0.916667 -0.750000 -0.083333     48.000000
  0.833333 -0.666667  0.000000     24.000000
  1.000000 -0.833333  0.000000     12.000000
  0.000000  0.333333  0.666667     24.000000
  0.916667 -0.583333 -0.250000     48.000000
  0.833333 -0.500000 -0.166667     24.000000
  1.000000 -0.666667 -0.166667     24.000000
  0.916667 -0.583333 -0.083333     48.000000
  0.833333 -0.500000  0.000000     24.000000
  1.000000 -0.666667  0.000000     12.000000
  1.000000 -0.500000  0.000000      6.000000
 


--------------------------------------------------------------------------------------------------------




 Dimension of arrays:
   k-points           NKPTS =     72   k-points in BZ     NKDIM =     72   number of bands    NBANDS=      8
   number of dos      NEDOS =    301   number of ions     NIONS =      2
   non local maximal  LDIM  =      4   non local SUM 2l+1 LMDIM =      8
   total plane-waves  NPLWV =  27000
   max r-space proj   IRMAX =      1   max aug-charges    IRDMAX=  10531
   dimension x,y,z NGX =    30 NGY =   30 NGZ =   30
   dimension x,y,z NGXF=    60 NGYF=   60 NGZF=   60
   support grid    NGXF=    60 NGYF=   60 NGZF=   60
   ions per type =               2
 NGX,Y,Z   is equivalent  to a cutoff of  10.01, 10.01, 10.01 a.u.
 NGXF,Y,Z  is equivalent  to a cutoff of  20.03, 20.03, 20.03 a.u.


 I would recommend the setting:
   dimension x,y,z NGX =    30 NGY =   30 NGZ =   30
 SYSTEM =  Si
 POSCAR =  Si

 Startparameter for this run:
   NWRITE =      2    write-flag & timer
   PREC   = normal    normal or accurate (medium, high low for compatibility)
   ISTART =      0    job   : 0-new  1-cont  2-samecut
   ICHARG =      2    charge: 1-file 2-atom 10-const
   ISPIN  =      1    spin polarized calculation?
   LNONCOLLINEAR =      F non collinear calculations
   LSORBIT =      F    spin-orbit coupling
   INIWAV =      1    electr: 0-lowe 1-rand  2-diag
   LASPH  =      F    aspherical Exc in radial PAW
   METAGGA=      F    non-selfconsistent MetaGGA calc.

 Electronic Relaxation 1
   ENCUT  =  600.0 eV  44.10 Ry    6.64 a.u.   9.95  9.95  9.95*2*pi/ulx,y,z
   ENINI  =  600.0     initial cutoff
   ENAUG  = 1200.0 eV  augmentation charge cutoff
   NELM   =    500;   NELMIN=  2; NELMDL= -5     # of ELM steps 
   EDIFF  = 0.1E-09   stopping-criterion for ELM
   LREAL  =      F    real-space projection
   NLSPLINE    = F    spline interpolate recip. space projectors
   LCOMPAT=      F    compatible to vasp.4.4
   GGA_COMPAT  = T    GGA compatible to vasp.4.4-vasp.4.6
   LMAXPAW     = -100 max onsite density
   LMAXMIX     =    2 max onsite mixed and CHGCAR
   VOSKOWN=      0    Vosko Wilk Nusair interpolation
   ROPT   =    0.00000
 Ionic relaxation
   EDIFFG = 0.1E-08   stopping-criterion for IOM
   NSW    =      0    number of steps for IOM
   NBLOCK =      1;   KBLOCK =      1    inner block; outer block 
   IBRION =     -1    ionic relax: 0-MD 1-quasi-New 2-CG
   NFREE  =      0    steps in history (QN), initial steepest desc. (CG)
   ISIF   =      2    stress and relaxation
   IWAVPR =     10    prediction:  0-non 1-charg 2-wave 3-comb
   ISYM   =      2    0-nonsym 1-usesym 2-fastsym
   LCORR  =      T    Harris-Foulkes like correction to forces

   POTIM  = 0.5000    time-step for ionic-motion
   TEIN   =    0.0    initial temperature
   TEBEG  =    0.0;   TEEND  =   0.0 temperature during run
   SMASS  =  -3.00    Nose mass-parameter (am)
   estimated Nose-frequenzy (Omega)   =  0.10E-29 period in steps =****** mass=  -0.567E-27a.u.
   SCALEE = 1.0000    scale energy and forces
   NPACO  =    256;   APACO  = 16.0  distance and # of slots for P.C.
   PSTRESS=    0.0 pullay stress

  Mass of Ions in am
   POMASS =  28.09
  Ionic Valenz
   ZVAL   =   4.00
  Atomic Wigner-Seitz radii
   RWIGS  =  -1.00
  virtual crystal weights 
   VCA    =   1.00
   NELECT =       8.0000    total number of electrons
   NUPDOWN=      -1.0000    fix difference up-down

 DOS related values:
   EMIN   =  10.00;   EMAX   =-10.00  energy-range for DOS
   EFERMI =   0.00
   ISMEAR =    -1;   SIGMA  =   0.03  broadening in eV -4-tet -1-fermi 0-gaus

 Electronic relaxation 2 (details)
   IALGO  =     38    algorithm
   LDIAG  =      T    sub-space diagonalisation (order eigenvalues)
   LSUBROT=      F    optimize rotation matrix (better conditioning)
   TURBO    =      0    0=normal 1=particle mesh
   IRESTART =      0    0=no restart 2=restart with 2 vectors
   NREBOOT  =      0    no. of reboots
   NMIN     =      0    reboot dimension
   EREF     =   0.00    reference energy to select bands
   IMIX   =      4    mixing-type and parameters
     AMIX     =   0.40;   BMIX     =  1.00
     AMIX_MAG =   1.60;   BMIX_MAG =  1.00
     AMIN     =   0.10
     WC   =   100.;   INIMIX=   1;  MIXPRE=   1;  MAXMIX= -45

 Intra band minimization:
   WEIMIN = 0.0000     energy-eigenvalue tresh-hold
   EBREAK =  0.31E-11  absolut break condition
   DEPER  =   0.30     relativ break condition  

   TIME   =   0.40     timestep for ELM

  volume/ion in A,a.u.               =      43.68       294.78
  Fermi-wavevector in a.u.,A,eV,Ry     =   0.737891  1.394412  7.408145  0.544483
  Thomas-Fermi vector in A             =   1.831682
 
 Write flags
   LWAVE  =      T    write WAVECAR
   LCHARG =      T    write CHGCAR
   LVTOT  =      F    write LOCPOT, total local potential
   LVHAR  =      F    write LOCPOT, Hartree potential only
   LELF   =      F    write electronic localiz. function (ELF)
   LORBIT =      0    0 simple, 1 ext, 2 COOP (PROOUT)


 Dipole corrections
   LMONO  =      F    monopole corrections only (constant potential shift)
   LDIPOL =      F    correct potential (dipole corrections)
   IDIPOL =      0    1-x, 2-y, 3-z, 4-all directions 
   EPSILON=  1.0000000 bulk dielectric constant

 Exchange correlation treatment:
   GGA     =    PE    GGA type
   LEXCH   =     8    internal setting for exchange type
   VOSKOWN=      0    Vosko Wilk Nusair interpolation
   LHFCALC =     F    Hartree Fock is set to
   LHFONE  =     F    Hartree Fock one center treatment
   AEXX    =    0.0000 exact exchange contribution

 Linear response parameters
   LEPSILON=     F    determine dielectric tensor
   LRPA    =     F    only Hartree local field effects (RPA)
   LNABLA  =     F    use nabla operator in PAW spheres
   LVEL    =     F    velocity operator in full k-point grid
   LINTERFAST=   F  fast interpolation
   KINTER  =     0    interpolate to denser k-point grid
   CSHIFT  =0.1000    complex shift for real part using Kramers Kronig
   OMEGAMAX=  -1.0    maximum frequency
   DEG_THRESHOLD= 0.2000000E-02 threshold for treating states as degnerate
   RTIME   =    0.100 relaxation time in fs

 Orbital magnetization related:
   ORBITALMAG=     F  switch on orbital magnetization
   LCHIMAG   =     F  perturbation theory with respect to B field
   DQ        =  0.001000  dq finite difference perturbation B field



--------------------------------------------------------------------------------------------------------


 Static calculation
 charge density and potential will be updated during run
 non-spin polarized calculation
 Variant of blocked Davidson
 Davidson routine will perform the subspace rotation
 perform sub-space diagonalisation
    after iterative eigenvector-optimisation
 modified Broyden-mixing scheme, WC =      100.0
 initial mixing is a Kerker type mixing with AMIX =  0.4000 and BMIX =      1.0000
 Hartree-type preconditioning will be used
 using additional bands            4
 reciprocal scheme for non local part
 use partial core corrections
 calculate Harris-corrections to forces 
   (improved forces if not selfconsistent)
 use gradient corrections 
 use of overlap-Matrix (Vanderbilt PP)
 Fermi-smearing in eV        SIGMA  =   0.03


--------------------------------------------------------------------------------------------------------


  energy-cutoff  :      600.00
  volume of cell :       87.37
      direct lattice vectors                 reciprocal lattice vectors
     0.000000000  3.521836642  3.521836642    -0.141971378  0.141971378  0.141971378
     3.521836642  0.000000000  3.521836642     0.141971378 -0.141971378  0.141971378
     3.521836642  3.521836642  0.000000000     0.141971378  0.141971378 -0.141971378

  length of vectors
     4.980629144  4.980629144  4.980629144     0.245901639  0.245901639  0.245901639


 
 k-points in units of 2pi/SCALE and weight: Gamma centered Monkhorst-Pack           
   0.00000000  0.00000000  0.00000000       0.001
  -0.08333333  0.08333333  0.08333333       0.005
  -0.16666667  0.16666667  0.16666667       0.005
  -0.25000000  0.25000000  0.25000000       0.005
  -0.33333333  0.33333333  0.33333333       0.005
  -0.41666667  0.41666667  0.41666667       0.005
  -0.50000000  0.50000000  0.50000000       0.002
   0.00000000  0.00000000  0.16666667       0.003
  -0.08333333  0.08333333  0.25000000       0.014
  -0.16666667  0.16666667  0.33333333       0.014
  -0.25000000  0.25000000  0.41666667       0.014
  -0.33333333  0.33333333  0.50000000       0.014
  -0.41666667  0.41666667  0.58333333       0.014
   0.50000000 -0.50000000 -0.33333333       0.014
   0.41666667 -0.41666667 -0.25000000       0.014
   0.33333333 -0.33333333 -0.16666667       0.014
   0.25000000 -0.25000000 -0.08333333       0.014
   0.16666667 -0.16666667  0.00000000       0.007
   0.00000000  0.00000000  0.33333333       0.003
  -0.08333333  0.08333333  0.41666667       0.014
  -0.16666667  0.16666667  0.50000000       0.014
  -0.25000000  0.25000000  0.58333333       0.014
  -0.33333333  0.33333333  0.66666667       0.014
   0.58333333 -0.58333333 -0.25000000       0.014
   0.50000000 -0.50000000 -0.16666667       0.014
   0.41666667 -0.41666667 -0.08333333       0.014
   0.33333333 -0.33333333  0.00000000       0.007
   0.00000000  0.00000000  0.50000000       0.003
  -0.08333333  0.08333333  0.58333333       0.014
  -0.16666667  0.16666667  0.66666667       0.014
  -0.25000000  0.25000000  0.75000000       0.014
   0.66666667 -0.66666667 -0.16666667       0.014
   0.58333333 -0.58333333 -0.08333333       0.014
   0.50000000 -0.50000000  0.00000000       0.007
   0.00000000  0.00000000  0.66666667       0.003
  -0.08333333  0.08333333  0.75000000       0.014
  -0.16666667  0.16666667  0.83333333       0.014
   0.75000000 -0.75000000 -0.08333333       0.014
   0.66666667 -0.66666667  0.00000000       0.007
   0.00000000  0.00000000  0.83333333       0.003
  -0.08333333  0.08333333  0.91666667       0.014
   0.83333333 -0.83333333  0.00000000       0.007
   0.00000000  0.00000000  1.00000000       0.002
   0.00000000  0.16666667  0.33333333       0.014
  -0.08333333  0.25000000  0.41666667       0.028
  -0.16666667  0.33333333  0.50000000       0.028
  -0.25000000  0.41666667  0.58333333       0.028
   0.66666667 -0.50000000 -0.33333333       0.014
   0.00000000  0.16666667  0.50000000       0.014
  -0.08333333  0.25000000  0.58333333       0.028
  -0.16666667  0.33333333  0.66666667       0.028
   0.75000000 -0.58333333 -0.25000000       0.028
   0.66666667 -0.50000000 -0.16666667       0.028
   0.58333333 -0.41666667 -0.08333333       0.028
   0.50000000 -0.33333333 -0.00000000       0.014
  -0.00000000  0.16666667  0.66666667       0.014
  -0.08333333  0.25000000  0.75000000       0.028
   0.83333333 -0.66666667 -0.16666667       0.028
   0.75000000 -0.58333333 -0.08333333       0.028
   0.66666667 -0.50000000  0.00000000       0.014
   0.00000000  0.16666667  0.83333333       0.014
   0.91666667 -0.75000000 -0.08333333       0.028
   0.83333333 -0.66666667  0.00000000       0.014
   1.00000000 -0.83333333  0.00000000       0.007
   0.00000000  0.33333333  0.66666667       0.014
   0.91666667 -0.58333333 -0.25000000       0.028
   0.83333333 -0.50000000 -0.16666667       0.014
   1.00000000 -0.66666667 -0.16666667       0.014
   0.91666667 -0.58333333 -0.08333333       0.028
   0.83333333 -0.50000000  0.00000000       0.014
   1.00000000 -0.66666667  0.00000000       0.007
   1.00000000 -0.50000000  0.00000000       0.003
 
 k-points in reciprocal lattice and weights: Gamma centered Monkhorst-Pack           
   0.00000000  0.00000000  0.00000000       0.001
   0.08333333  0.00000000  0.00000000       0.005
   0.16666667  0.00000000  0.00000000       0.005
   0.25000000  0.00000000  0.00000000       0.005
   0.33333333  0.00000000  0.00000000       0.005
   0.41666667  0.00000000  0.00000000       0.005
   0.50000000  0.00000000  0.00000000       0.002
   0.08333333  0.08333333  0.00000000       0.003
   0.16666667  0.08333333  0.00000000       0.014
   0.25000000  0.08333333  0.00000000       0.014
   0.33333333  0.08333333  0.00000000       0.014
   0.41666667  0.08333333  0.00000000       0.014
   0.50000000  0.08333333  0.00000000       0.014
  -0.41666667  0.08333333  0.00000000       0.014
  -0.33333333  0.08333333  0.00000000       0.014
  -0.25000000  0.08333333  0.00000000       0.014
  -0.16666667  0.08333333  0.00000000       0.014
  -0.08333333  0.08333333  0.00000000       0.007
   0.16666667  0.16666667  0.00000000       0.003
   0.25000000  0.16666667  0.00000000       0.014
   0.33333333  0.16666667  0.00000000       0.014
   0.41666667  0.16666667  0.00000000       0.014
   0.50000000  0.16666667  0.00000000       0.014
  -0.41666667  0.16666667  0.00000000       0.014
  -0.33333333  0.16666667  0.00000000       0.014
  -0.25000000  0.16666667  0.00000000       0.014
  -0.16666667  0.16666667  0.00000000       0.007
   0.25000000  0.25000000  0.00000000       0.003
   0.33333333  0.25000000  0.00000000       0.014
   0.41666667  0.25000000  0.00000000       0.014
   0.50000000  0.25000000  0.00000000       0.014
  -0.41666667  0.25000000  0.00000000       0.014
  -0.33333333  0.25000000  0.00000000       0.014
  -0.25000000  0.25000000  0.00000000       0.007
   0.33333333  0.33333333  0.00000000       0.003
   0.41666667  0.33333333  0.00000000       0.014
   0.50000000  0.33333333  0.00000000       0.014
  -0.41666667  0.33333333  0.00000000       0.014
  -0.33333333  0.33333333  0.00000000       0.007
   0.41666667  0.41666667  0.00000000       0.003
   0.50000000  0.41666667  0.00000000       0.014
  -0.41666667  0.41666667  0.00000000       0.007
   0.50000000  0.50000000  0.00000000       0.002
   0.25000000  0.16666667  0.08333333       0.014
   0.33333333  0.16666667  0.08333333       0.028
   0.41666667  0.16666667  0.08333333       0.028
   0.50000000  0.16666667  0.08333333       0.028
  -0.41666667  0.16666667  0.08333333       0.014
   0.33333333  0.25000000  0.08333333       0.014
   0.41666667  0.25000000  0.08333333       0.028
   0.50000000  0.25000000  0.08333333       0.028
  -0.41666667  0.25000000  0.08333333       0.028
  -0.33333333  0.25000000  0.08333333       0.028
  -0.25000000  0.25000000  0.08333333       0.028
  -0.16666667  0.25000000  0.08333333       0.014
   0.41666667  0.33333333  0.08333333       0.014
   0.50000000  0.33333333  0.08333333       0.028
  -0.41666667  0.33333333  0.08333333       0.028
  -0.33333333  0.33333333  0.08333333       0.028
  -0.25000000  0.33333333  0.08333333       0.014
   0.50000000  0.41666667  0.08333333       0.014
  -0.41666667  0.41666667  0.08333333       0.028
  -0.33333333  0.41666667  0.08333333       0.014
  -0.41666667  0.50000000  0.08333333       0.007
   0.50000000  0.33333333  0.16666667       0.014
  -0.41666667  0.33333333  0.16666667       0.028
  -0.33333333  0.33333333  0.16666667       0.014
  -0.41666667  0.41666667  0.16666667       0.014
  -0.33333333  0.41666667  0.16666667       0.028
  -0.25000000  0.41666667  0.16666667       0.014
  -0.33333333  0.50000000  0.16666667       0.007
  -0.25000000  0.50000000  0.25000000       0.003
 
 position of ions in fractional coordinates (direct lattice) 
   0.00000000  0.00000000  0.00000000
   0.25000000  0.25000000  0.25000000
 
 position of ions in cartesian coordinates  (Angst):
   0.00000000  0.00000000  0.00000000
   1.76091832  1.76091832  1.76091832
 


--------------------------------------------------------------------------------------------------------


 k-point  1 :   0.0000 0.0000 0.0000  plane waves:    2891
 k-point  2 :   0.0833 0.0000 0.0000  plane waves:    2879
 k-point  3 :   0.1667 0.0000 0.0000  plane waves:    2887
 k-point  4 :   0.2500 0.0000 0.0000  plane waves:    2902
 k-point  5 :   0.3333 0.0000 0.0000  plane waves:    2929
 k-point  6 :   0.4167 0.0000 0.0000  plane waves:    2920
 k-point  7 :   0.5000 0.0000 0.0000  plane waves:    2914
 k-point  8 :   0.0833 0.0833 0.0000  plane waves:    2882
 k-point  9 :   0.1667 0.0833 0.0000  plane waves:    2896
 k-point 10 :   0.2500 0.0833 0.0000  plane waves:    2909
 k-point 11 :   0.3333 0.0833 0.0000  plane waves:    2909
 k-point 12 :   0.4167 0.0833 0.0000  plane waves:    2922
 k-point 13 :   0.5000 0.0833 0.0000  plane waves:    2916
 k-point 14 :  -0.4167 0.0833 0.0000  plane waves:    2913
 k-point 15 :  -0.3333 0.0833 0.0000  plane waves:    2915
 k-point 16 :  -0.2500 0.0833 0.0000  plane waves:    2906
 k-point 17 :  -0.1667 0.0833 0.0000  plane waves:    2891
 k-point 18 :  -0.0833 0.0833 0.0000  plane waves:    2884
 k-point 19 :   0.1667 0.1667 0.0000  plane waves:    2894
 k-point 20 :   0.2500 0.1667 0.0000  plane waves:    2903
 k-point 21 :   0.3333 0.1667 0.0000  plane waves:    2916
 k-point 22 :   0.4167 0.1667 0.0000  plane waves:    2915
 k-point 23 :   0.5000 0.1667 0.0000  plane waves:    2909
 k-point 24 :  -0.4167 0.1667 0.0000  plane waves:    2915
 k-point 25 :  -0.3333 0.1667 0.0000  plane waves:    2922
 k-point 26 :  -0.2500 0.1667 0.0000  plane waves:    2913
 k-point 27 :  -0.1667 0.1667 0.0000  plane waves:    2918
 k-point 28 :   0.2500 0.2500 0.0000  plane waves:    2890
 k-point 29 :   0.3333 0.2500 0.0000  plane waves:    2903
 k-point 30 :   0.4167 0.2500 0.0000  plane waves:    2920
 k-point 31 :   0.5000 0.2500 0.0000  plane waves:    2919
 k-point 32 :  -0.4167 0.2500 0.0000  plane waves:    2926
 k-point 33 :  -0.3333 0.2500 0.0000  plane waves:    2930
 k-point 34 :  -0.2500 0.2500 0.0000  plane waves:    2910
 k-point 35 :   0.3333 0.3333 0.0000  plane waves:    2918
 k-point 36 :   0.4167 0.3333 0.0000  plane waves:    2909
 k-point 37 :   0.5000 0.3333 0.0000  plane waves:    2915
 k-point 38 :  -0.4167 0.3333 0.0000  plane waves:    2913
 k-point 39 :  -0.3333 0.3333 0.0000  plane waves:    2904
 k-point 40 :   0.4167 0.4167 0.0000  plane waves:    2918
 k-point 41 :   0.5000 0.4167 0.0000  plane waves:    2923
 k-point 42 :  -0.4167 0.4167 0.0000  plane waves:    2910
 k-point 43 :   0.5000 0.5000 0.0000  plane waves:    2914
 k-point 44 :   0.2500 0.1667 0.0833  plane waves:    2898
 k-point 45 :   0.3333 0.1667 0.0833  plane waves:    2905
 k-point 46 :   0.4167 0.1667 0.0833  plane waves:    2918
 k-point 47 :   0.5000 0.1667 0.0833  plane waves:    2917
 k-point 48 :  -0.4167 0.1667 0.0833  plane waves:    2912
 k-point 49 :   0.3333 0.2500 0.0833  plane waves:    2902
 k-point 50 :   0.4167 0.2500 0.0833  plane waves:    2917
 k-point 51 :   0.5000 0.2500 0.0833  plane waves:    2911
 k-point 52 :  -0.4167 0.2500 0.0833  plane waves:    2924
 k-point 53 :  -0.3333 0.2500 0.0833  plane waves:    2923
 k-point 54 :  -0.2500 0.2500 0.0833  plane waves:    2921
 k-point 55 :  -0.1667 0.2500 0.0833  plane waves:    2910
 k-point 56 :   0.4167 0.3333 0.0833  plane waves:    2924
 k-point 57 :   0.5000 0.3333 0.0833  plane waves:    2918
 k-point 58 :  -0.4167 0.3333 0.0833  plane waves:    2917
 k-point 59 :  -0.3333 0.3333 0.0833  plane waves:    2922
 k-point 60 :  -0.2500 0.3333 0.0833  plane waves:    2919
 k-point 61 :   0.5000 0.4167 0.0833  plane waves:    2915
 k-point 62 :  -0.4167 0.4167 0.0833  plane waves:    2912
 k-point 63 :  -0.3333 0.4167 0.0833  plane waves:    2928
 k-point 64 :  -0.4167 0.5000 0.0833  plane waves:    2922
 k-point 65 :   0.5000 0.3333 0.1667  plane waves:    2938
 k-point 66 :  -0.4167 0.3333 0.1667  plane waves:    2920
 k-point 67 :  -0.3333 0.3333 0.1667  plane waves:    2922
 k-point 68 :  -0.4167 0.4167 0.1667  plane waves:    2919
 k-point 69 :  -0.3333 0.4167 0.1667  plane waves:    2928
 k-point 70 :  -0.2500 0.4167 0.1667  plane waves:    2925
 k-point 71 :  -0.3333 0.5000 0.1667  plane waves:    2922
 k-point 72 :  -0.2500 0.5000 0.2500  plane waves:    2936

 maximum and minimum number of plane-waves per node :      2938     2879

 maximum number of plane-waves:      2938
 maximum index in each direction: 
   IXMAX=   10   IYMAX=    9   IZMAX=    9
   IXMIN=  -10   IYMIN=  -10   IZMIN=  -10

 WARNING: aliasing errors must be expected set NGX to  42 to avoid them
 WARNING: aliasing errors must be expected set NGY to  40 to avoid them
 WARNING: aliasing errors must be expected set NGZ to  40 to avoid them
 aliasing errors are usually negligible using standard VASP settings
 and one can safely disregard these warnings

 serial   3D FFT for wavefunctions
 parallel 3D FFT for charge:
    minimum data exchange during FFTs selected (reduces bandwidth)


 total amount of memory used by VASP on root node    56187. kBytes
========================================================================

   base      :      30000. kBytes
   nonl-proj :      13641. kBytes
   fftplans  :       1986. kBytes
   grid      :       3744. kBytes
   one-center:          6. kBytes
   wavefun   :       6810. kBytes
 
     INWAV:  cpu time    0.00: real time    0.00
 Broyden mixing: mesh for mixing (old mesh)
   NGX = 19   NGY = 19   NGZ = 19
  (NGX  = 60   NGY  = 60   NGZ  = 60)
  gives a total of   6859 points

 initial charge density was supplied:
 charge density of overlapping atoms calculated
 number of electron       8.0000000 magnetization 
 keeping initial charge density in first step


--------------------------------------------------------------------------------------------------------


 Maximum index for augmentation-charges         2504 (set IRDMAX)


--------------------------------------------------------------------------------------------------------


 First call to EWALD:  gamma=   0.399
 Maximum number of real-space cells 3x 3x 3
 Maximum number of reciprocal cells 3x 3x 3

 FEWALD executed in parallel
    FEWALD:  cpu time    0.00: real time    0.00


----------------------------------------- Iteration    1(   1)  ---------------------------------------


    POTLOK:  cpu time    0.03: real time    0.03
    SETDIJ:  cpu time    0.00: real time    0.00
     EDDAV:  cpu time    0.60: real time    0.61
       DOS:  cpu time    0.00: real time    0.00
    --------------------------------------------
      LOOP:  cpu time    0.63: real time    0.65

 eigenvalue-minimisations  :  1152
 total energy-change (2. order) : 0.9540852E+01  (-0.2807766E+03)
 number of electron       8.0000000 magnetization 
 augmentation part        8.0000000 magnetization 

 Free energy of the ion-electron system (eV)
  ---------------------------------------------------
  alpha Z        PSCENC =         1.54126104
  Ewald energy   TEWEN  =      -176.20066836
  -Hartree energ DENC   =       -25.58601822
  -exchange      EXHF   =         0.00000000
  -V(xc)+E(xc)   XCENC  =       -20.91928854
  PAW double counting   =        65.95520812      -30.76852678
  entropy T*S    EENTRO =        -0.00287803
  eigenvalues    EBANDS =       -10.61135594
  atomic energy  EATOM  =       206.13311910
  ---------------------------------------------------
  free energy    TOTEN  =         9.54085239 eV

  energy without entropy =        9.54373042  energy(sigma->0) =        9.54229140


--------------------------------------------------------------------------------------------------------




----------------------------------------- Iteration    1(   2)  ---------------------------------------


     EDDAV:  cpu time    0.94: real time    0.94
       DOS:  cpu time    0.00: real time    0.00
    --------------------------------------------
      LOOP:  cpu time    0.94: real time    0.94

 eigenvalue-minimisations  :  1936
 total energy-change (2. order) :-0.1656261E+02  (-0.1616299E+02)
 number of electron       8.0000000 magnetization 
 augmentation part        8.0000000 magnetization 

 Free energy of the ion-electron system (eV)
  ---------------------------------------------------
  alpha Z        PSCENC =         1.54126104
  Ewald energy   TEWEN  =      -176.20066836
  -Hartree energ DENC   =       -25.58601822
  -exchange      EXHF   =         0.00000000
  -V(xc)+E(xc)   XCENC  =       -20.91928854
  PAW double counting   =        65.95520812      -30.76852678
  entropy T*S    EENTRO =        -0.00089880
  eigenvalues    EBANDS =       -27.17594580
  atomic energy  EATOM  =       206.13311910
  ---------------------------------------------------
  free energy    TOTEN  =        -7.02175825 eV

  energy without entropy =       -7.02085944  energy(sigma->0) =       -7.02130885


--------------------------------------------------------------------------------------------------------




----------------------------------------- Iteration    1(   3)  ---------------------------------------


     EDDAV:  cpu time    0.71: real time    0.72
       DOS:  cpu time    0.00: real time    0.00
    --------------------------------------------
      LOOP:  cpu time    0.71: real time    0.72

 eigenvalue-minimisations  :  1392
 total energy-change (2. order) :-0.4398724E+00  (-0.4394388E+00)
 number of electron       8.0000000 magnetization 
 augmentation part        8.0000000 magnetization 

 Free energy of the ion-electron system (eV)
  ---------------------------------------------------
  alpha Z        PSCENC =         1.54126104
  Ewald energy   TEWEN  =      -176.20066836
  -Hartree energ DENC   =       -25.58601822
  -exchange      EXHF   =         0.00000000
  -V(xc)+E(xc)   XCENC  =       -20.91928854
  PAW double counting   =        65.95520812      -30.76852678
  entropy T*S    EENTRO =        -0.00084204
  eigenvalues    EBANDS =       -27.61587499
  atomic energy  EATOM  =       206.13311910
  ---------------------------------------------------
  free energy    TOTEN  =        -7.46163067 eV

  energy without entropy =       -7.46078863  energy(sigma->0) =       -7.46120965


--------------------------------------------------------------------------------------------------------




----------------------------------------- Iteration    1(   4)  ---------------------------------------


     EDDAV:  cpu time    0.79: real time    0.80
       DOS:  cpu time    0.00: real time    0.00
    --------------------------------------------
      LOOP:  cpu time    0.79: real time    0.80

 eigenvalue-minimisations  :  1584
 total energy-change (2. order) :-0.3679549E-02  (-0.3679475E-02)
 number of electron       8.0000000 magnetization 
 augmentation part        8.0000000 magnetization 

 Free energy of the ion-electron system (eV)
  ---------------------------------------------------
  alpha Z        PSCENC =         1.54126104
  Ewald energy   TEWEN  =      -176.20066836
  -Hartree energ DENC   =       -25.58601822
  -exchange      EXHF   =         0.00000000
  -V(xc)+E(xc)   XCENC  =       -20.91928854
  PAW double counting   =        65.95520812      -30.76852678
  entropy T*S    EENTRO =        -0.00084370
  eigenvalues    EBANDS =       -27.61955287
  atomic energy  EATOM  =       206.13311910
  ---------------------------------------------------
  free energy    TOTEN  =        -7.46531022 eV

  energy without entropy =       -7.46446652  energy(sigma->0) =       -7.46488837


--------------------------------------------------------------------------------------------------------




----------------------------------------- Iteration    1(   5)  ---------------------------------------


     EDDAV:  cpu time    0.74: real time    0.75
       DOS:  cpu time    0.00: real time    0.00
    CHARGE:  cpu time    0.04: real time    0.04
    MIXING:  cpu time    0.00: real time    0.00
    --------------------------------------------
      LOOP:  cpu time    0.79: real time    0.80

 eigenvalue-minimisations  :  1480
 total energy-change (2. order) :-0.1750376E-04  (-0.1750368E-04)
 number of electron       8.0000003 magnetization 
 augmentation part       -0.5005558 magnetization 

 Broyden mixing:
  rms(total) = 0.14397E+00    rms(broyden)= 0.14397E+00
  rms(prec ) = 0.35158E+00
  weight for this iteration     100.00

 Free energy of the ion-electron system (eV)
  ---------------------------------------------------
  alpha Z        PSCENC =         1.54126104
  Ewald energy   TEWEN  =      -176.20066836
  -Hartree energ DENC   =       -25.58601822
  -exchange      EXHF   =         0.00000000
  -V(xc)+E(xc)   XCENC  =       -20.91928854
  PAW double counting   =        65.95520812      -30.76852678
  entropy T*S    EENTRO =        -0.00084378
  eigenvalues    EBANDS =       -27.61957030
  atomic energy  EATOM  =       206.13311910
  ---------------------------------------------------
  free energy    TOTEN  =        -7.46532772 eV

  energy without entropy =       -7.46448394  energy(sigma->0) =       -7.46490583


--------------------------------------------------------------------------------------------------------




----------------------------------------- Iteration    1(   6)  ---------------------------------------


    POTLOK:  cpu time    0.03: real time    0.03
    SETDIJ:  cpu time    0.00: real time    0.00
     EDDAV:  cpu time    0.69: real time    0.69
       DOS:  cpu time    0.00: real time    0.00
    CHARGE:  cpu time    0.04: real time    0.04
    MIXING:  cpu time    0.00: real time    0.00
    --------------------------------------------
      LOOP:  cpu time    0.76: real time    0.77

 eigenvalue-minimisations  :  1344
 total energy-change (2. order) :-0.4247028E-02  (-0.4107276E-03)
 number of electron       8.0000003 magnetization 
 augmentation part       -0.5030736 magnetization 

 Broyden mixing:
  rms(total) = 0.91716E-01    rms(broyden)= 0.91716E-01
  rms(prec ) = 0.22672E+00
  weight for this iteration     100.00

 eigenvalues of (default mixing * dielectric matrix)
  average eigenvalue GAMMA=   2.7336
  2.7336

 Free energy of the ion-electron system (eV)
  ---------------------------------------------------
  alpha Z        PSCENC =         1.54126104
  Ewald energy   TEWEN  =      -176.20066836
  -Hartree energ DENC   =       -25.65542638
  -exchange      EXHF   =         0.00000000
  -V(xc)+E(xc)   XCENC  =       -20.90618592
  PAW double counting   =        65.01670932      -29.79406125
  entropy T*S    EENTRO =        -0.00085179
  eigenvalues    EBANDS =       -27.60347052
  atomic energy  EATOM  =       206.13311910
  ---------------------------------------------------
  free energy    TOTEN  =        -7.46957475 eV

  energy without entropy =       -7.46872296  energy(sigma->0) =       -7.46914886


--------------------------------------------------------------------------------------------------------




----------------------------------------- Iteration    1(   7)  ---------------------------------------


    POTLOK:  cpu time    0.02: real time    0.03
    SETDIJ:  cpu time    0.00: real time    0.00
     EDDAV:  cpu time    0.68: real time    0.68
       DOS:  cpu time    0.00: real time    0.00
    CHARGE:  cpu time    0.04: real time    0.04
    MIXING:  cpu time    0.00: real time    0.00
    --------------------------------------------
      LOOP:  cpu time    0.75: real time    0.76

 eigenvalue-minimisations  :  1320
 total energy-change (2. order) :-0.9027870E-03  (-0.1186760E-02)
 number of electron       8.0000003 magnetization 
 augmentation part       -0.5077861 magnetization 

 Broyden mixing:
  rms(total) = 0.69640E-02    rms(broyden)= 0.69639E-02
  rms(prec ) = 0.23431E-01
  weight for this iteration     100.00

 eigenvalues of (default mixing * dielectric matrix)
  average eigenvalue GAMMA=   2.4961
  2.4961  2.4961

 Free energy of the ion-electron system (eV)
  ---------------------------------------------------
  alpha Z        PSCENC =         1.54126104
  Ewald energy   TEWEN  =      -176.20066836
  -Hartree energ DENC   =       -26.04324652
  -exchange      EXHF   =         0.00000000
  -V(xc)+E(xc)   XCENC  =       -20.84699329
  PAW double counting   =        63.54752176      -28.27028798
  entropy T*S    EENTRO =        -0.00085194
  eigenvalues    EBANDS =       -27.33033136
  atomic energy  EATOM  =       206.13311910
  ---------------------------------------------------
  free energy    TOTEN  =        -7.47047754 eV

  energy without entropy =       -7.46962560  energy(sigma->0) =       -7.47005157


--------------------------------------------------------------------------------------------------------




----------------------------------------- Iteration    1(   8)  ---------------------------------------


    POTLOK:  cpu time    0.02: real time    0.03
    SETDIJ:  cpu time    0.00: real time    0.00
     EDDAV:  cpu time    0.62: real time    0.62
       DOS:  cpu time    0.00: real time    0.00
    CHARGE:  cpu time    0.04: real time    0.04
    MIXING:  cpu time    0.00: real time    0.00
    --------------------------------------------
      LOOP:  cpu time    0.69: real time    0.70

 eigenvalue-minimisations  :  1160
 total energy-change (2. order) :-0.5327938E-03  (-0.1699073E-03)
 number of electron       8.0000003 magnetization 
 augmentation part       -0.5065302 magnetization 

 Broyden mixing:
  rms(total) = 0.38285E-02    rms(broyden)= 0.38285E-02
  rms(prec ) = 0.10197E-01
  weight for this iteration     100.00

 eigenvalues of (default mixing * dielectric matrix)
  average eigenvalue GAMMA=   2.1298
  1.1480  2.9733  2.2680

 Free energy of the ion-electron system (eV)
  ---------------------------------------------------
  alpha Z        PSCENC =         1.54126104
  Ewald energy   TEWEN  =      -176.20066836
  -Hartree energ DENC   =       -26.24259871
  -exchange      EXHF   =         0.00000000
  -V(xc)+E(xc)   XCENC  =       -20.83196358
  PAW double counting   =        63.83803543      -28.57714097
  entropy T*S    EENTRO =        -0.00084952
  eigenvalues    EBANDS =       -27.13020476
  atomic energy  EATOM  =       206.13311910
  ---------------------------------------------------
  free energy    TOTEN  =        -7.47101033 eV

  energy without entropy =       -7.47016081  energy(sigma->0) =       -7.47058557


--------------------------------------------------------------------------------------------------------




----------------------------------------- Iteration    1(   9)  ---------------------------------------


    POTLOK:  cpu time    0.03: real time    0.03
    SETDIJ:  cpu time    0.00: real time    0.00
     EDDAV:  cpu time    0.83: real time    0.83
       DOS:  cpu time    0.00: real time    0.00
    CHARGE:  cpu time    0.04: real time    0.04
    MIXING:  cpu time    0.00: real time    0.00
    --------------------------------------------
      LOOP:  cpu time    0.90: real time    0.91

 eigenvalue-minimisations  :  1680
 total energy-change (2. order) :-0.1080229E-03  (-0.1082506E-04)
 number of electron       8.0000003 magnetization 
 augmentation part       -0.5067091 magnetization 

 Broyden mixing:
  rms(total) = 0.14017E-02    rms(broyden)= 0.14017E-02
  rms(prec ) = 0.32835E-02
  weight for this iteration     100.00

 eigenvalues of (default mixing * dielectric matrix)
  average eigenvalue GAMMA=   2.3885
  0.9928  3.4948  2.8091  2.2574

 Free energy of the ion-electron system (eV)
  ---------------------------------------------------
  alpha Z        PSCENC =         1.54126104
  Ewald energy   TEWEN  =      -176.20066836
  -Hartree energ DENC   =       -26.28201814
  -exchange      EXHF   =         0.00000000
  -V(xc)+E(xc)   XCENC  =       -20.82689271
  PAW double counting   =        63.73263963      -28.46819138
  entropy T*S    EENTRO =        -0.00084961
  eigenvalues    EBANDS =       -27.09951795
  atomic energy  EATOM  =       206.13311910
  ---------------------------------------------------
  free energy    TOTEN  =        -7.47111836 eV

  energy without entropy =       -7.47026875  energy(sigma->0) =       -7.47069355


--------------------------------------------------------------------------------------------------------




----------------------------------------- Iteration    1(  10)  ---------------------------------------


    POTLOK:  cpu time    0.03: real time    0.03
    SETDIJ:  cpu time    0.00: real time    0.00
     EDDAV:  cpu time    0.64: real time    0.64
       DOS:  cpu time    0.00: real time    0.00
    CHARGE:  cpu time    0.04: real time    0.04
    MIXING:  cpu time    0.00: real time    0.00
    --------------------------------------------
      LOOP:  cpu time    0.71: real time    0.72

 eigenvalue-minimisations  :  1216
 total energy-change (2. order) :-0.5004197E-04  (-0.9762329E-05)
 number of electron       8.0000003 magnetization 
 augmentation part       -0.5066659 magnetization 

 Broyden mixing:
  rms(total) = 0.23471E-03    rms(broyden)= 0.23471E-03
  rms(prec ) = 0.49241E-03
  weight for this iteration     100.00

 eigenvalues of (default mixing * dielectric matrix)
  average eigenvalue GAMMA=   2.1597
  3.6015  2.4908  2.4308  1.0304  1.2449

 Free energy of the ion-electron system (eV)
  ---------------------------------------------------
  alpha Z        PSCENC =         1.54126104
  Ewald energy   TEWEN  =      -176.20066836
  -Hartree energ DENC   =       -26.29089303
  -exchange      EXHF   =         0.00000000
  -V(xc)+E(xc)   XCENC  =       -20.82616136
  PAW double counting   =        63.68063259      -28.41432324
  entropy T*S    EENTRO =        -0.00085025
  eigenvalues    EBANDS =       -27.09328490
  atomic energy  EATOM  =       206.13311910
  ---------------------------------------------------
  free energy    TOTEN  =        -7.47116840 eV

  energy without entropy =       -7.47031815  energy(sigma->0) =       -7.47074327


--------------------------------------------------------------------------------------------------------




----------------------------------------- Iteration    1(  11)  ---------------------------------------


    POTLOK:  cpu time    0.02: real time    0.03
    SETDIJ:  cpu time    0.00: real time    0.00
     EDDAV:  cpu time    0.84: real time    0.84
       DOS:  cpu time    0.00: real time    0.00
    CHARGE:  cpu time    0.04: real time    0.04
    MIXING:  cpu time    0.00: real time    0.00
    --------------------------------------------
      LOOP:  cpu time    0.91: real time    0.92

 eigenvalue-minimisations  :  1720
 total energy-change (2. order) :-0.1456939E-06  (-0.5158197E-07)
 number of electron       8.0000003 magnetization 
 augmentation part       -0.5066844 magnetization 

 Broyden mixing:
  rms(total) = 0.98118E-04    rms(broyden)= 0.98118E-04
  rms(prec ) = 0.22051E-03
  weight for this iteration     100.00

 eigenvalues of (default mixing * dielectric matrix)
  average eigenvalue GAMMA=   2.2619
  3.7808  2.9443  2.5248  2.3343  0.9936  0.9936

 Free energy of the ion-electron system (eV)
  ---------------------------------------------------
  alpha Z        PSCENC =         1.54126104
  Ewald energy   TEWEN  =      -176.20066836
  -Hartree energ DENC   =       -26.29148373
  -exchange      EXHF   =         0.00000000
  -V(xc)+E(xc)   XCENC  =       -20.82593190
  PAW double counting   =        63.68229573      -28.41596910
  entropy T*S    EENTRO =        -0.00085022
  eigenvalues    EBANDS =       -27.09294111
  atomic energy  EATOM  =       206.13311910
  ---------------------------------------------------
  free energy    TOTEN  =        -7.47116854 eV

  energy without entropy =       -7.47031832  energy(sigma->0) =       -7.47074343


--------------------------------------------------------------------------------------------------------




----------------------------------------- Iteration    1(  12)  ---------------------------------------


    POTLOK:  cpu time    0.02: real time    0.04
    SETDIJ:  cpu time    0.00: real time    0.00
     EDDAV:  cpu time    0.61: real time    0.62
       DOS:  cpu time    0.00: real time    0.00
    CHARGE:  cpu time    0.04: real time    0.04
    MIXING:  cpu time    0.00: real time    0.00
    --------------------------------------------
      LOOP:  cpu time    0.68: real time    0.71

 eigenvalue-minimisations  :  1176
 total energy-change (2. order) :-0.6067982E-06  (-0.5629795E-07)
 number of electron       8.0000003 magnetization 
 augmentation part       -0.5066756 magnetization 

 Broyden mixing:
  rms(total) = 0.16550E-04    rms(broyden)= 0.16550E-04
  rms(prec ) = 0.39473E-04
  weight for this iteration     100.00

 eigenvalues of (default mixing * dielectric matrix)
  average eigenvalue GAMMA=   2.1118
  3.7917  2.9609  2.6104  2.2132  1.0267  0.9615  1.2180

 Free energy of the ion-electron system (eV)
  ---------------------------------------------------
  alpha Z        PSCENC =         1.54126104
  Ewald energy   TEWEN  =      -176.20066836
  -Hartree energ DENC   =       -26.29224831
  -exchange      EXHF   =         0.00000000
  -V(xc)+E(xc)   XCENC  =       -20.82577035
  PAW double counting   =        63.68869567      -28.42255236
  entropy T*S    EENTRO =        -0.00085021
  eigenvalues    EBANDS =       -27.09215538
  atomic energy  EATOM  =       206.13311910
  ---------------------------------------------------
  free energy    TOTEN  =        -7.47116915 eV

  energy without entropy =       -7.47031894  energy(sigma->0) =       -7.47074405


--------------------------------------------------------------------------------------------------------




----------------------------------------- Iteration    1(  13)  ---------------------------------------


    POTLOK:  cpu time    0.03: real time    0.03
    SETDIJ:  cpu time    0.00: real time    0.00
     EDDAV:  cpu time    0.80: real time    0.82
       DOS:  cpu time    0.00: real time    0.00
    CHARGE:  cpu time    0.04: real time    0.04
    MIXING:  cpu time    0.00: real time    0.00
    --------------------------------------------
      LOOP:  cpu time    0.88: real time    0.90

 eigenvalue-minimisations  :  1672
 total energy-change (2. order) : 0.6523936E-07  (-0.4548953E-09)
 number of electron       8.0000003 magnetization 
 augmentation part       -0.5066775 magnetization 

 Broyden mixing:
  rms(total) = 0.34363E-05    rms(broyden)= 0.34362E-05
  rms(prec ) = 0.73936E-05
  weight for this iteration     100.00

 eigenvalues of (default mixing * dielectric matrix)
  average eigenvalue GAMMA=   2.1752
  3.8179  2.9623  2.9623  2.3386  2.3386  1.0156  1.0156  0.9512

 Free energy of the ion-electron system (eV)
  ---------------------------------------------------
  alpha Z        PSCENC =         1.54126104
  Ewald energy   TEWEN  =      -176.20066836
  -Hartree energ DENC   =       -26.29201946
  -exchange      EXHF   =         0.00000000
  -V(xc)+E(xc)   XCENC  =       -20.82578915
  PAW double counting   =        63.68759722      -28.42141099
  entropy T*S    EENTRO =        -0.00085021
  eigenvalues    EBANDS =       -27.09240828
  atomic energy  EATOM  =       206.13311910
  ---------------------------------------------------
  free energy    TOTEN  =        -7.47116908 eV

  energy without entropy =       -7.47031887  energy(sigma->0) =       -7.47074398


--------------------------------------------------------------------------------------------------------




----------------------------------------- Iteration    1(  14)  ---------------------------------------


    POTLOK:  cpu time    0.03: real time    0.04
    SETDIJ:  cpu time    0.00: real time    0.00
     EDDAV:  cpu time    0.61: real time    0.62
       DOS:  cpu time    0.00: real time    0.00
    CHARGE:  cpu time    0.04: real time    0.04
    MIXING:  cpu time    0.00: real time    0.00
    --------------------------------------------
      LOOP:  cpu time    0.68: real time    0.71

 eigenvalue-minimisations  :  1160
 total energy-change (2. order) : 0.1235088E-07  (-0.7379795E-10)
 number of electron       8.0000003 magnetization 
 augmentation part       -0.5066776 magnetization 

 Broyden mixing:
  rms(total) = 0.12765E-05    rms(broyden)= 0.12765E-05
  rms(prec ) = 0.30240E-05
  weight for this iteration     100.00

 eigenvalues of (default mixing * dielectric matrix)
  average eigenvalue GAMMA=   2.0400
  3.8154  2.9994  2.7273  2.6142  2.2162  1.0440  1.0041  1.0041  0.9349

 Free energy of the ion-electron system (eV)
  ---------------------------------------------------
  alpha Z        PSCENC =         1.54126104
  Ewald energy   TEWEN  =      -176.20066836
  -Hartree energ DENC   =       -26.29205949
  -exchange      EXHF   =         0.00000000
  -V(xc)+E(xc)   XCENC  =       -20.82578788
  PAW double counting   =        63.68723488      -28.42104203
  entropy T*S    EENTRO =        -0.00085021
  eigenvalues    EBANDS =       -27.09237612
  atomic energy  EATOM  =       206.13311910
  ---------------------------------------------------
  free energy    TOTEN  =        -7.47116907 eV

  energy without entropy =       -7.47031886  energy(sigma->0) =       -7.47074397


--------------------------------------------------------------------------------------------------------




----------------------------------------- Iteration    1(  15)  ---------------------------------------


    POTLOK:  cpu time    0.03: real time    0.03
    SETDIJ:  cpu time    0.00: real time    0.00
     EDDAV:  cpu time    0.51: real time    0.51
       DOS:  cpu time    0.00: real time    0.00
    CHARGE:  cpu time    0.04: real time    0.04
    MIXING:  cpu time    0.00: real time    0.00
    --------------------------------------------
      LOOP:  cpu time    0.58: real time    0.60

 eigenvalue-minimisations  :   880
 total energy-change (2. order) :-0.1541650E-08  (-0.1556556E-11)
 number of electron       8.0000003 magnetization 
 augmentation part       -0.5066775 magnetization 

 Broyden mixing:
  rms(total) = 0.12670E-06    rms(broyden)= 0.12667E-06
  rms(prec ) = 0.21627E-06
  weight for this iteration     100.00

 eigenvalues of (default mixing * dielectric matrix)
  average eigenvalue GAMMA=   2.1106
  3.8185  2.9521  2.9521  2.7353  2.2177  2.4490  1.0381  0.9928  0.9928  0.9573

 Free energy of the ion-electron system (eV)
  ---------------------------------------------------
  alpha Z        PSCENC =         1.54126104
  Ewald energy   TEWEN  =      -176.20066836
  -Hartree energ DENC   =       -26.29206676
  -exchange      EXHF   =         0.00000000
  -V(xc)+E(xc)   XCENC  =       -20.82578823
  PAW double counting   =        63.68724404      -28.42105224
  entropy T*S    EENTRO =        -0.00085021
  eigenvalues    EBANDS =       -27.09236745
  atomic energy  EATOM  =       206.13311910
  ---------------------------------------------------
  free energy    TOTEN  =        -7.47116907 eV

  energy without entropy =       -7.47031886  energy(sigma->0) =       -7.47074397


--------------------------------------------------------------------------------------------------------




----------------------------------------- Iteration    1(  16)  ---------------------------------------


    POTLOK:  cpu time    0.03: real time    0.04
    SETDIJ:  cpu time    0.00: real time    0.00
     EDDAV:  cpu time    0.40: real time    0.40
       DOS:  cpu time    0.00: real time    0.00
    CHARGE:  cpu time    0.04: real time    0.04
    MIXING:  cpu time    0.00: real time    0.00
    --------------------------------------------
      LOOP:  cpu time    0.47: real time    0.49

 eigenvalue-minimisations  :   576
 total energy-change (2. order) :-0.4598917E-09  (-0.2841272E-12)
 number of electron       8.0000003 magnetization 
 augmentation part       -0.5066775 magnetization 

 Broyden mixing:
  rms(total) = 0.31253E-07    rms(broyden)= 0.31117E-07
  rms(prec ) = 0.63234E-07
  weight for this iteration     100.00

 eigenvalues of (default mixing * dielectric matrix)
  average eigenvalue GAMMA=   2.0173
  3.8193  3.0191  2.9003  2.5962  2.5962  2.2201  0.9660  0.9660  0.9934  1.0569
  1.0569

 Free energy of the ion-electron system (eV)
  ---------------------------------------------------
  alpha Z        PSCENC =         1.54126104
  Ewald energy   TEWEN  =      -176.20066836
  -Hartree energ DENC   =       -26.29206609
  -exchange      EXHF   =         0.00000000
  -V(xc)+E(xc)   XCENC  =       -20.82578839
  PAW double counting   =        63.68726000      -28.42106843
  entropy T*S    EENTRO =        -0.00085021
  eigenvalues    EBANDS =       -27.09236774
  atomic energy  EATOM  =       206.13311910
  ---------------------------------------------------
  free energy    TOTEN  =        -7.47116907 eV

  energy without entropy =       -7.47031886  energy(sigma->0) =       -7.47074397


--------------------------------------------------------------------------------------------------------




----------------------------------------- Iteration    1(  17)  ---------------------------------------


    POTLOK:  cpu time    0.03: real time    0.03
    SETDIJ:  cpu time    0.00: real time    0.00
     EDDAV:  cpu time    0.40: real time    0.40
       DOS:  cpu time    0.00: real time    0.00
    CHARGE:  cpu time    0.04: real time    0.04
    MIXING:  cpu time    0.00: real time    0.00
    --------------------------------------------
      LOOP:  cpu time    0.47: real time    0.48

 eigenvalue-minimisations  :   576
 total energy-change (2. order) :-0.1132605E-09  (-0.1121240E-12)
 number of electron       8.0000003 magnetization 
 augmentation part       -0.5066775 magnetization 

 Broyden mixing:
  rms(total) = 0.11013E-07    rms(broyden)= 0.10624E-07
  rms(prec ) = 0.28837E-07
  weight for this iteration     100.00

 eigenvalues of (default mixing * dielectric matrix)
  average eigenvalue GAMMA=   2.0258
  3.8156  3.0583  2.8929  2.5812  2.5812  2.2325  2.2325  1.0530  1.0016  0.9673
  0.9468  0.9468

 Free energy of the ion-electron system (eV)
  ---------------------------------------------------
  alpha Z        PSCENC =         1.54126104
  Ewald energy   TEWEN  =      -176.20066836
  -Hartree energ DENC   =       -26.29206602
  -exchange      EXHF   =         0.00000000
  -V(xc)+E(xc)   XCENC  =       -20.82578835
  PAW double counting   =        63.68726362      -28.42107210
  entropy T*S    EENTRO =        -0.00085021
  eigenvalues    EBANDS =       -27.09236779
  atomic energy  EATOM  =       206.13311910
  ---------------------------------------------------
  free energy    TOTEN  =        -7.47116907 eV

  energy without entropy =       -7.47031886  energy(sigma->0) =       -7.47074397


--------------------------------------------------------------------------------------------------------




----------------------------------------- Iteration    1(  18)  ---------------------------------------


    POTLOK:  cpu time    0.03: real time    0.03
    SETDIJ:  cpu time    0.00: real time    0.00
     EDDAV:  cpu time    0.40: real time    0.40
       DOS:  cpu time    0.00: real time    0.00
    --------------------------------------------
      LOOP:  cpu time    0.42: real time    0.44

 eigenvalue-minimisations  :   576
 total energy-change (2. order) : 0.5488232E-10  ( 0.9139240E-13)
 number of electron       8.0000003 magnetization 
 augmentation part       -0.5066775 magnetization 

 Free energy of the ion-electron system (eV)
  ---------------------------------------------------
  alpha Z        PSCENC =         1.54126104
  Ewald energy   TEWEN  =      -176.20066836
  -Hartree energ DENC   =       -26.29206558
  -exchange      EXHF   =         0.00000000
  -V(xc)+E(xc)   XCENC  =       -20.82578837
  PAW double counting   =        63.68726268      -28.42107113
  entropy T*S    EENTRO =        -0.00085021
  eigenvalues    EBANDS =       -27.09236825
  atomic energy  EATOM  =       206.13311910
  ---------------------------------------------------
  free energy    TOTEN  =        -7.47116907 eV

  energy without entropy =       -7.47031886  energy(sigma->0) =       -7.47074397


--------------------------------------------------------------------------------------------------------




 average (electrostatic) potential at core
  the test charge radii are     0.9892
  (the norm of the test charge is              1.0000)
       1 -89.7372       2 -89.7372
 
 
 
 E-fermi :   0.1642     XC(G=0):  -6.6352     alpha+bet : -5.4906


 k-point     1 :       0.0000    0.0000    0.0000
  band No.  band energies     occupation 
      1      -7.9557      2.00000
      2      -2.8122      2.00000
      3       0.2619      0.03935
      4       0.2619      0.03935
      5       0.2619      0.03935
      6       2.2041      0.00000
      7       2.2041      0.00000
      8       2.2041      0.00000

 k-point     2 :       0.0833    0.0000    0.0000
  band No.  band energies     occupation 
      1      -7.9138      2.00000
      2      -2.9796      2.00000
      3       0.2035      0.34313
      4       0.2035      0.34313
      5       0.2793      0.01982
      6       2.2914      0.00000
      7       2.2914      0.00000
      8       2.2941      0.00000

 k-point     3 :       0.1667    0.0000    0.0000
  band No.  band energies     occupation 
      1      -7.7910      2.00000
      2      -3.3999      2.00000
      3       0.0655      1.96208
      4       0.0655      1.96208
      5       0.2546      0.05223
      6       2.5019      0.00000
      7       2.5019      0.00000
      8       2.6171      0.00000

 k-point     4 :       0.2500    0.0000    0.0000
  band No.  band energies     occupation 
      1      -7.5975      2.00000
      2      -3.9299      2.00000
      3      -0.0893      1.99992
      4      -0.0893      1.99992
      5       0.1441      1.38100
      6       2.7352      0.00000
      7       2.7352      0.00000
      8       3.1790      0.00000

 k-point     5 :       0.3333    0.0000    0.0000
  band No.  band energies     occupation 
      1      -7.3580      2.00000
      2      -4.4550      2.00000
      3      -0.2191      2.00000
      4      -0.2191      2.00000
      5       0.0096      1.99588
      6       2.9129      0.00000
      7       2.9129      0.00000
      8       3.8728      0.00000

 k-point     6 :       0.4167    0.0000    0.0000
  band No.  band energies     occupation 
      1      -7.1304      2.00000
      2      -4.8694      2.00000
      3      -0.3030      2.00000
      4      -0.3030      2.00000
      5      -0.0899      1.99992
      6       3.0091      0.00000
      7       3.0091      0.00000
      8       4.5263      0.00000

 k-point     7 :       0.5000    0.0000    0.0000
  band No.  band energies     occupation 
      1      -7.0271      2.00000
      2      -5.0371      2.00000
      3      -0.3318      2.00000
      4      -0.3318      2.00000
      5      -0.1257      1.99998
      6       3.0375      0.00000
      7       3.0375      0.00000
      8       4.8275      0.00000

 k-point     8 :       0.0833    0.0833    0.0000
  band No.  band energies     occupation 
      1      -7.8997      2.00000
      2      -3.0301      2.00000
      3       0.1062      1.82090
      4       0.1062      1.82089
      5       0.4656      0.00001
      6       2.0848      0.00000
      7       2.4268      0.00000
      8       2.4268      0.00000

 k-point     9 :       0.1667    0.0833    0.0000
  band No.  band energies     occupation 
      1      -7.8032      2.00000
      2      -3.3536      2.00000
      3      -0.0592      1.99974
      4      -0.0505      1.99963
      5       0.5971      0.00000
      6       2.0933      0.00000
      7       2.6696      0.00000
      8       2.7103      0.00000

 k-point    10 :       0.2500    0.0833    0.0000
  band No.  band energies     occupation 
      1      -7.6315      2.00000
      2      -3.8315      2.00000
      3      -0.2755      2.00000
      4      -0.2063      2.00000
      5       0.6025      0.00000
      6       2.3160      0.00000
      7       2.9209      0.00000
      8       3.1377      0.00000

 k-point    11 :       0.3333    0.0833    0.0000
  band No.  band energies     occupation 
      1      -7.4031      2.00000
      2      -4.3471      2.00000
      3      -0.4909      2.00000
      4      -0.3250      2.00000
      5       0.5246      0.00000
      6       2.6137      0.00000
      7       3.1009      0.00000
      8       3.6736      0.00000

 k-point    12 :       0.4167    0.0833    0.0000
  band No.  band energies     occupation 
      1      -7.1609      2.00000
      2      -4.7984      2.00000
      3      -0.6586      2.00000
      4      -0.3896      2.00000
      5       0.4354      0.00004
      6       2.8431      0.00000
      7       3.1785      0.00000
      8       4.2580      0.00000

 k-point    13 :       0.5000    0.0833    0.0000
  band No.  band energies     occupation 
      1      -7.0002      2.00000
      2      -5.0594      2.00000
      3      -0.7551      2.00000
      4      -0.3939      2.00000
      5       0.3774      0.00039
      6       2.9760      0.00000
      7       3.1689      0.00000
      8       4.6829      0.00000

 k-point    14 :      -0.4167    0.0833    0.0000
  band No.  band energies     occupation 
      1      -7.0370      2.00000
      2      -5.0019      2.00000
      3      -0.7704      2.00000
      4      -0.3387      2.00000
      5       0.3671      0.00060
      6       3.0330      0.00000
      7       3.0941      0.00000
      8       4.5904      0.00000

 k-point    15 :      -0.3333    0.0833    0.0000
  band No.  band energies     occupation 
      1      -7.2399      2.00000
      2      -4.6600      2.00000
      3      -0.7015      2.00000
      4      -0.2307      2.00000
      5       0.4026      0.00014
      6       2.9564      0.00000
      7       3.0025      0.00000
      8       4.0620      0.00000

 k-point    16 :      -0.2500    0.0833    0.0000
  band No.  band energies     occupation 
      1      -7.4848      2.00000
      2      -4.1757      2.00000
      3      -0.5509      2.00000
      4      -0.0844      1.99990
      5       0.4604      0.00001
      6       2.7530      0.00000
      7       2.8283      0.00000
      8       3.4833      0.00000

 k-point    17 :      -0.1667    0.0833    0.0000
  band No.  band energies     occupation 
      1      -7.6971      2.00000
      2      -3.6628      2.00000
      3      -0.3277      2.00000
      4       0.0717      1.95164
      5       0.4844      0.00001
      6       2.5165      0.00000
      7       2.5257      0.00000
      8       3.0268      0.00000

 k-point    18 :      -0.0833    0.0833    0.0000
  band No.  band energies     occupation 
      1      -7.8447      2.00000
      2      -3.2237      2.00000
      3      -0.0547      1.99968
      4       0.1878      0.56003
      5       0.4076      0.00012
      6       2.3116      0.00000
      7       2.3305      0.00000
      8       2.6339      0.00000

 k-point    19 :       0.1667    0.1667    0.0000
  band No.  band energies     occupation 
      1      -7.7329      2.00000
      2      -3.5484      2.00000
      3      -0.2178      2.00000
      4      -0.2178      2.00000
      5       0.9104      0.00000
      6       1.8220      0.00000
      7       2.9474      0.00000
      8       2.9474      0.00000

 k-point    20 :       0.2500    0.1667    0.0000
  band No.  band energies     occupation 
      1      -7.5848      2.00000
      2      -3.9214      2.00000
      3      -0.4295      2.00000
      4      -0.3777      2.00000
      5       1.0663      0.00000
      6       1.8304      0.00000
      7       3.2374      0.00000
      8       3.2927      0.00000

 k-point    21 :       0.3333    0.1667    0.0000
  band No.  band energies     occupation 
      1      -7.3718      2.00000
      2      -4.3756      2.00000
      3      -0.6957      2.00000
      4      -0.4953      2.00000
      5       1.0707      0.00000
      6       2.1147      0.00000
      7       3.4522      0.00000
      8       3.6520      0.00000

 k-point    22 :       0.4167    0.1667    0.0000
  band No.  band energies     occupation 
      1      -7.1249      2.00000
      2      -4.8180      2.00000
      3      -0.9402      2.00000
      4      -0.5536      2.00000
      5       1.0009      0.00000
      6       2.5091      0.00000
      7       3.5442      0.00000
      8       3.9854      0.00000

 k-point    23 :       0.5000    0.1667    0.0000
  band No.  band energies     occupation 
      1      -6.9191      2.00000
      2      -5.1372      2.00000
      3      -1.1113      2.00000
      4      -0.5468      2.00000
      5       0.9312      0.00000
      6       2.8290      0.00000
      7       3.5197      0.00000
      8       4.3235      0.00000

 k-point    24 :      -0.4167    0.1667    0.0000
  band No.  band energies     occupation 
      1      -6.8863      2.00000
      2      -5.1845      2.00000
      3      -1.1843      2.00000
      4      -0.4766      2.00000
      5       0.8892      0.00000
      6       3.0143      0.00000
      7       3.4056      0.00000
      8       4.4301      0.00000

 k-point    25 :      -0.3333    0.1667    0.0000
  band No.  band energies     occupation 
      1      -7.0561      2.00000
      2      -4.9296      2.00000
      3      -1.1464      2.00000
      4      -0.3522      2.00000
      5       0.8712      0.00000
      6       3.0689      0.00000
      7       3.2166      0.00000
      8       4.0825      0.00000

 k-point    26 :      -0.2500    0.1667    0.0000
  band No.  band energies     occupation 
      1      -7.3014      2.00000
      2      -4.5141      2.00000
      3      -0.9895      2.00000
      4      -0.1927      2.00000
[...]
      8       4.4516      0.00000

 k-point    37 :       0.5000    0.3333    0.0000
  band No.  band energies     occupation 
      1      -6.5958      2.00000
      2      -5.5185      2.00000
      3      -1.2396      2.00000
      4      -0.8824      2.00000
      5       1.3859      0.00000
      6       2.0702      0.00000
      7       4.3789      0.00000
      8       4.4775      0.00000

 k-point    38 :      -0.4167    0.3333    0.0000
  band No.  band energies     occupation 
      1      -6.4438      2.00000
      2      -5.6943      2.00000
      3      -1.4443      2.00000
      4      -0.8182      2.00000
      5       1.3627      0.00000
      6       2.6706      0.00000
      7       4.2593      0.00000
      8       4.3150      0.00000

 k-point    39 :      -0.3333    0.3333    0.0000
  band No.  band energies     occupation 
      1      -6.5734      2.00000
      2      -5.5426      2.00000
      3      -1.5198      2.00000
      4      -0.6927      2.00000
      5       1.3257      0.00000
      6       3.1684      0.00000
      7       4.0018      0.00000
      8       4.0477      0.00000

 k-point    40 :       0.4167    0.4167    0.0000
  band No.  band energies     occupation 
      1      -6.6253      2.00000
      2      -5.4873      2.00000
      3      -0.9657      2.00000
      4      -0.9657      2.00000
      5       1.3216      0.00000
      6       1.4682      0.00000
      7       4.7623      0.00000
      8       4.7623      0.00000

 k-point    41 :       0.5000    0.4167    0.0000
  band No.  band energies     occupation 
      1      -6.3599      2.00000
      2      -5.7964      2.00000
      3      -1.1029      2.00000
      4      -0.9854      2.00000
      5       1.3733      0.00000
      6       1.5828      0.00000
      7       4.8024      0.00000
      8       4.8458      0.00000

 k-point    42 :      -0.4167    0.4167    0.0000
  band No.  band energies     occupation 
      1      -6.2128      2.00000
      2      -5.9491      2.00000
      3      -1.3113      2.00000
      4      -0.9341      2.00000
      5       1.3761      0.00000
      6       2.0799      0.00000
      7       4.5929      0.00000
      8       4.6798      0.00000

 k-point    43 :       0.5000    0.5000    0.0000
  band No.  band energies     occupation 
      1      -6.0869      2.00000
      2      -6.0869      2.00000
      3      -1.0211      2.00000
      4      -1.0211      2.00000
      5       1.3672      0.00000
      6       1.3672      0.00000
      7       4.9847      0.00000
      8       4.9847      0.00000

 k-point    44 :       0.2500    0.1667    0.0833
  band No.  band energies     occupation 
      1      -7.6813      2.00000
      2      -3.6941      2.00000
      3      -0.3834      2.00000
      4      -0.1060      1.99996
      5       0.7879      0.00000
      6       2.0810      0.00000
      7       2.8696      0.00000
      8       3.0912      0.00000

 k-point    45 :       0.3333    0.1667    0.0833
  band No.  band energies     occupation 
      1      -7.4887      2.00000
      2      -4.1467      2.00000
      3      -0.6734      2.00000
      4      -0.2272      2.00000
      5       0.8669      0.00000
      6       2.2953      0.00000
      7       3.1275      0.00000
      8       3.4508      0.00000

 k-point    46 :       0.4167    0.1667    0.0833
  band No.  band energies     occupation 
      1      -7.2486      2.00000
      2      -4.6165      2.00000
      3      -0.8927      2.00000
      4      -0.3589      2.00000
      5       0.8486      0.00000
      6       2.6171      0.00000
      7       3.3077      0.00000
      8       3.8384      0.00000

 k-point    47 :       0.5000    0.1667    0.0833
  band No.  band energies     occupation 
      1      -7.0168      2.00000
      2      -5.0022      2.00000
      3      -1.0273      2.00000
      4      -0.4524      2.00000
      5       0.8073      0.00000
      6       2.8618      0.00000
      7       3.3653      0.00000
      8       4.2844      0.00000

 k-point    48 :      -0.4167    0.1667    0.0833
  band No.  band energies     occupation 
      1      -6.9097      2.00000
      2      -5.1632      2.00000
      3      -1.0725      2.00000
      4      -0.4856      2.00000
      5       0.7892      0.00000
      6       2.9461      0.00000
      7       3.3722      0.00000
      8       4.5303      0.00000

 k-point    49 :       0.3333    0.2500    0.0833
  band No.  band energies     occupation 
      1      -7.4141      2.00000
      2      -4.2821      2.00000
      3      -0.7046      2.00000
      4      -0.4719      2.00000
      5       1.2478      0.00000
      6       1.8324      0.00000
      7       3.5332      0.00000
      8       3.5797      0.00000

 k-point    50 :       0.4167    0.2500    0.0833
  band No.  band energies     occupation 
      1      -7.1852      2.00000
      2      -4.6977      2.00000
      3      -0.9717      2.00000
      4      -0.5840      2.00000
      5       1.3079      0.00000
      6       2.1129      0.00000
      7       3.7130      0.00000
      8       3.8301      0.00000

 k-point    51 :       0.5000    0.2500    0.0833
  band No.  band energies     occupation 
      1      -6.9373      2.00000
      2      -5.0848      2.00000
      3      -1.1841      2.00000
      4      -0.6603      2.00000
      5       1.2789      0.00000
      6       2.5350      0.00000
      7       3.7597      0.00000
      8       4.0491      0.00000

 k-point    52 :      -0.4167    0.2500    0.0833
  band No.  band energies     occupation 
      1      -6.7688      2.00000
      2      -5.3195      2.00000
      3      -1.3125      2.00000
      4      -0.6674      2.00000
      5       1.2430      0.00000
      6       2.8550      0.00000
      7       3.7469      0.00000
      8       4.2182      0.00000

 k-point    53 :      -0.3333    0.2500    0.0833
  band No.  band energies     occupation 
      1      -6.8161      2.00000
      2      -5.2555      2.00000
      3      -1.3354      2.00000
      4      -0.6026      2.00000
      5       1.2213      0.00000
      6       2.9394      0.00000
      7       3.6716      0.00000
      8       4.1581      0.00000

 k-point    54 :      -0.2500    0.2500    0.0833
  band No.  band energies     occupation 
      1      -7.0329      2.00000
      2      -4.9436      2.00000
      3      -1.2387      2.00000
      4      -0.4804      2.00000
      5       1.1918      0.00000
      6       2.7596      0.00000
      7       3.5875      0.00000
      8       3.8580      0.00000

 k-point    55 :      -0.1667    0.2500    0.0833
  band No.  band energies     occupation 
      1      -7.2801      2.00000
      2      -4.5409      2.00000
      3      -1.0157      2.00000
      4      -0.3345      2.00000
      5       1.0902      0.00000
      6       2.4642      0.00000
      7       3.3985      0.00000
      8       3.6397      0.00000

 k-point    56 :       0.4167    0.3333    0.0833
  band No.  band energies     occupation 
      1      -7.0510      2.00000
      2      -4.9015      2.00000
      3      -0.9460      2.00000
      4      -0.7800      2.00000
      5       1.5417      0.00000
      6       1.6519      0.00000
      7       4.0177      0.00000
      8       4.1896      0.00000

 k-point    57 :       0.5000    0.3333    0.0833
  band No.  band energies     occupation 
      1      -6.7983      2.00000
      2      -5.2608      2.00000
      3      -1.1770      2.00000
      4      -0.8606      2.00000
      5       1.5408      0.00000
      6       2.0562      0.00000
      7       4.0204      0.00000
      8       4.3493      0.00000

 k-point    58 :      -0.4167    0.3333    0.0833
  band No.  band energies     occupation 
      1      -6.5808      2.00000
      2      -5.5351      2.00000
      3      -1.3774      2.00000
      4      -0.8606      2.00000
      5       1.5095      0.00000
      6       2.5991      0.00000
      7       3.9996      0.00000
      8       4.2763      0.00000

 k-point    59 :      -0.3333    0.3333    0.0833
  band No.  band energies     occupation 
      1      -6.5733      2.00000
      2      -5.5432      2.00000
      3      -1.4770      2.00000
      4      -0.7822      2.00000
      5       1.4787      0.00000
      6       3.0042      0.00000
      7       3.9886      0.00000
      8       4.0225      0.00000

 k-point    60 :      -0.2500    0.3333    0.0833
  band No.  band energies     occupation 
      1      -6.7823      2.00000
      2      -5.2834      2.00000
      3      -1.4364      2.00000
      4      -0.6435      2.00000
      5       1.4013      0.00000
      6       3.0004      0.00000
      7       3.8292      0.00000
      8       3.8851      0.00000

 k-point    61 :       0.5000    0.4167    0.0833
  band No.  band energies     occupation 
      1      -6.6030      2.00000
      2      -5.5105      2.00000
      3      -1.0800      2.00000
      4      -0.9938      2.00000
      5       1.5693      0.00000
      6       1.6104      0.00000
      7       4.4570      0.00000
      8       4.6843      0.00000

 k-point    62 :      -0.4167    0.4167    0.0833
  band No.  band energies     occupation 
      1      -6.3501      2.00000
      2      -5.7991      2.00000
      3      -1.2775      2.00000
      4      -1.0123      2.00000
      5       1.5766      0.00000
      6       2.0728      0.00000
      7       4.3717      0.00000
      8       4.5903      0.00000

 k-point    63 :      -0.3333    0.4167    0.0833
  band No.  band energies     occupation 
      1      -6.3347      2.00000
      2      -5.8120      2.00000
      3      -1.4451      2.00000
      4      -0.9298      2.00000
      5       1.5607      0.00000
      6       2.6595      0.00000
      7       4.2067      0.00000
      8       4.2560      0.00000

 k-point    64 :      -0.4167    0.5000    0.0833
  band No.  band energies     occupation 
      1      -6.0841      2.00000
      2      -6.0841      2.00000
      3      -1.0961      2.00000
      4      -1.0961      2.00000
      5       1.5757      0.00000
      6       1.5757      0.00000
      7       4.7787      0.00000
      8       4.7787      0.00000

 k-point    65 :       0.5000    0.3333    0.1667
  band No.  band energies     occupation 
      1      -6.9462      2.00000
      2      -5.0584      2.00000
      3      -1.2189      2.00000
      4      -0.7135      2.00000
      5       1.5474      0.00000
      6       2.2830      0.00000
      7       3.7710      0.00000
      8       4.0677      0.00000

 k-point    66 :      -0.4167    0.3333    0.1667
  band No.  band energies     occupation 
      1      -6.6997      2.00000
      2      -5.3878      2.00000
      3      -1.3723      2.00000
      4      -0.8321      2.00000
      5       1.6433      0.00000
      6       2.6234      0.00000
      7       3.8109      0.00000
      8       4.1554      0.00000

 k-point    67 :      -0.3333    0.3333    0.1667
  band No.  band energies     occupation 
      1      -6.5732      2.00000
      2      -5.5437      2.00000
      3      -1.4237      2.00000
      4      -0.8781      2.00000
      5       1.6591      0.00000
      6       2.8080      0.00000
      7       3.9921      0.00000
      8       3.9922      0.00000

 k-point    68 :      -0.4167    0.4167    0.1667
  band No.  band energies     occupation 
      1      -6.5402      2.00000
      2      -5.5782      2.00000
      3      -1.2923      2.00000
      4      -1.0268      2.00000
      5       1.8856      0.00000
      6       2.1562      0.00000
      7       3.9540      0.00000
      8       4.4284      0.00000

 k-point    69 :      -0.3333    0.4167    0.1667
  band No.  band energies     occupation 
      1      -6.3401      2.00000
      2      -5.8021      2.00000
      3      -1.3896      2.00000
      4      -1.0853      2.00000
      5       1.9550      0.00000
      6       2.5659      0.00000
      7       3.9248      0.00000
      8       4.1559      0.00000

 k-point    70 :      -0.2500    0.4167    0.1667
  band No.  band energies     occupation 
      1      -6.4468      2.00000
      2      -5.6832      2.00000
      3      -1.4375      2.00000
      4      -0.9996      2.00000
      5       1.8856      0.00000
      6       2.7497      0.00000
      7       3.8462      0.00000
      8       4.0810      0.00000

 k-point    71 :      -0.3333    0.5000    0.1667
  band No.  band energies     occupation 
      1      -6.0783      2.00000
      2      -6.0783      2.00000
      3      -1.2268      2.00000
      4      -1.2268      2.00000
      5       2.0553      0.00000
      6       2.0553      0.00000
      7       4.2747      0.00000
      8       4.2747      0.00000

 k-point    72 :      -0.2500    0.5000    0.2500
  band No.  band energies     occupation 
      1      -6.0754      2.00000
      2      -6.0754      2.00000
      3      -1.2849      2.00000
      4      -1.2849      2.00000
      5       2.3771      0.00000
      6       2.3771      0.00000
      7       3.9319      0.00000
      8       3.9319      0.00000


--------------------------------------------------------------------------------------------------------


 soft charge-density along one line, spin component           1
         0         1         2         3         4         5         6         7         8         9
 total charge-density along one line
 
 pseudopotential strength for first ion, spin component:           1
 19.108   0.005   0.000   0.000   0.000  -0.000  -0.000  -0.000
  0.005   0.006  -0.000  -0.000  -0.000   0.000   0.000   0.000
  0.000  -0.000   4.261  -0.000  -0.000  -0.000   0.000   0.000
  0.000  -0.000  -0.000   4.261  -0.000   0.000  -0.000   0.000
  0.000  -0.000  -0.000  -0.000   4.261   0.000   0.000  -0.000
 -0.000   0.000  -0.000   0.000   0.000   0.004  -0.000  -0.000
 -0.000   0.000   0.000  -0.000   0.000  -0.000   0.004  -0.000
 -0.000   0.000   0.000   0.000  -0.000  -0.000  -0.000   0.004
 total augmentation occupancy for first ion, spin component:           1
  1.838   0.023   0.000   0.000   0.000  -0.000  -0.000  -0.000
  0.023   0.135  -0.000   0.000  -0.000  -0.000  -0.000  -0.000
  0.000   0.000   0.666   0.000  -0.000  -0.159   0.000   0.000
  0.000  -0.000   0.000   0.666   0.000   0.000  -0.159   0.000
  0.000  -0.000  -0.000   0.000   0.666   0.000  -0.000  -0.159
 -0.000  -0.000  -0.159   0.000   0.000   0.050  -0.000   0.000
 -0.000  -0.000   0.000  -0.159  -0.000  -0.000   0.050   0.000
 -0.000  -0.000   0.000  -0.000  -0.159   0.000  -0.000   0.050


------------------------ aborting loop because EDIFF is reached ----------------------------------------


    CHARGE:  cpu time    0.04: real time    0.05
    FORLOC:  cpu time    0.00: real time    0.00
    FORNL :  cpu time    0.06: real time    0.06
    STRESS:  cpu time    0.56: real time    0.57
    FORCOR:  cpu time    0.02: real time    0.03
    FORHAR:  cpu time    0.01: real time    0.01
    MIXING:  cpu time    0.00: real time    0.00
    OFIELD:  cpu time    0.00: real time    0.00

  FORCE on cell =-STRESS in cart. coord.  units (eV):
  Direction    XX          YY          ZZ          XY          YZ          ZX
  --------------------------------------------------------------------------------------
  Alpha Z     1.54126     1.54126     1.54126
  Ewald     -58.73358   -58.73358   -58.73358     0.00000     0.00000    -0.00000
  Hartree     8.76402     8.76402     8.76402    -0.00000     0.00000    -0.00000
  E(xc)     -22.39133   -22.39133   -22.39133    -0.00000    -0.00000    -0.00000
  Local     -43.78980   -43.78980   -43.78980     0.00001     0.00001     0.00001
  n-local    76.85977    78.32539    72.48736     1.37776    -0.52329    -0.01158
  augment   -12.97761   -12.97761   -12.97761    -0.00001    -0.00001    -0.00001
  Kinetic    47.97124    49.56595    39.76075     3.23402    -1.29017     0.75882
  Fock        0.00000     0.00000     0.00000     0.00000     0.00000     0.00000
  -------------------------------------------------------------------------------------
  Total      -5.93022    -5.93022    -5.93022    -0.00000    -0.00000    -0.00000
  in kB    -108.75359  -108.75359  -108.75359    -0.00000    -0.00000    -0.00000
  external pressure =     -108.75 kB  Pullay stress =        0.00 kB


 VOLUME and BASIS-vectors are now :
 -----------------------------------------------------------------------------
  energy-cutoff  :      600.00
  volume of cell :       87.37
      direct lattice vectors                 reciprocal lattice vectors
     0.000000000  3.521836642  3.521836642    -0.141971378  0.141971378  0.141971378
     3.521836642  0.000000000  3.521836642     0.141971378 -0.141971378  0.141971378
     3.521836642  3.521836642  0.000000000     0.141971378  0.141971378 -0.141971378

  length of vectors
     4.980629144  4.980629144  4.980629144     0.245901639  0.245901639  0.245901639


 FORCES acting on ions
    electron-ion (+dipol)            ewald-force                    non-local-force                 convergence-correction
 -----------------------------------------------------------------------------------------------
   0.885E-07 0.885E-07 0.867E-07   0.119E-14 0.128E-14 0.324E-14   -.278E-16 -.243E-16 -.208E-16   0.849E-14 0.980E-14 0.114E-13
   -.891E-07 -.891E-07 -.838E-07   -.122E-14 -.148E-14 -.310E-14   0.260E-16 0.226E-16 0.208E-16   -.546E-14 -.660E-14 -.128E-13
 -----------------------------------------------------------------------------------------------
   -.666E-09 -.666E-09 0.295E-08   -.346E-16 -.205E-15 0.135E-15   -.173E-17 -.173E-17 0.000E+00   0.303E-14 0.320E-14 -.139E-14
 
 
 POSITION                                       TOTAL-FORCE (eV/Angst)
 -----------------------------------------------------------------------------------
      0.00000      0.00000      0.00000        -0.000000     -0.000000     -0.000000
      1.76092      1.76092      1.76092         0.000000      0.000000      0.000000
 -----------------------------------------------------------------------------------
    total drift:                               -0.000000     -0.000000      0.000000


--------------------------------------------------------------------------------------------------------



  FREE ENERGIE OF THE ION-ELECTRON SYSTEM (eV)
  ---------------------------------------------------
  free  energy   TOTEN  =        -7.47116907 eV

  energy  without entropy=       -7.47031886  energy(sigma->0) =       -7.47074397
 


--------------------------------------------------------------------------------------------------------


    POTLOK:  cpu time    0.03: real time    0.03


--------------------------------------------------------------------------------------------------------


 writing wavefunctions
     LOOP+:  cpu time   13.78: real time   14.25
    4ORBIT:  cpu time    0.00: real time    0.00

 total amount of memory used by VASP on root node    56187. kBytes
========================================================================

   base      :      30000. kBytes
   nonl-proj :      13641. kBytes
   fftplans  :       1986. kBytes
   grid      :       3744. kBytes
   one-center:          6. kBytes
   wavefun   :       6810. kBytes
 
  
  
 General timing and accounting informations for this job:
 ========================================================
  
                  Total CPU time used (sec):       14.388
                            User time (sec):       13.952
                          System time (sec):        0.436
                         Elapsed time (sec):       15.024
  
                   Maximum memory used (kb):       67812.
                   Average memory used (kb):           0.
  
                          Minor page faults:        11936
                          Major page faults:            7
                 Voluntary context switches:          714
